Program Version,EnergyPlus, Version 9.4.0-998c4b761e, YMD=2022.04.20 08:19
1,5,Environment Title[],Latitude[deg],Longitude[deg],Time Zone[],Elevation[m]
2,8,Day of Simulation[],Month[],Day of Month[],DST Indicator[1=yes 0=no],Hour[],StartMinute[],EndMinute[],DayType
3,5,Cumulative Day of Simulation[],Month[],Day of Month[],DST Indicator[1=yes 0=no],DayType  ! When Daily Report Variables Requested
4,2,Cumulative Days of Simulation[],Month[]  ! When Monthly Report Variables Requested
5,1,Cumulative Days of Simulation[] ! When Run Period Report Variables Requested
6,1,Calendar Year of Simulation[] ! When Annual Report Variables Requested
8,1,Electricity:Facility [J] !TimeStep
1716,1,NaturalGas:Facility [J] !TimeStep
End of Data Dictionary
1,TUCSON INTERNATIONAL AP ANN CLG .4% CONDNS DB=>MWB 1 HVAC Sizing Pass 1,  32.13,-110.95,  -7.00, 777.00
2,1, 7,21, 0, 1, 0.00,15.00,SummerDesignDay
8,2259573032.8391239
1716,0.0
2,1, 7,21, 0, 1,15.00,30.00,SummerDesignDay
8,2259265294.1809899
1716,0.0
2,1, 7,21, 0, 1,30.00,45.00,SummerDesignDay
8,2259443146.226977
1716,0.0
2,1, 7,21, 0, 1,45.00,60.00,SummerDesignDay
8,2258983503.598803
1716,0.0
2,1, 7,21, 0, 2, 0.00,15.00,SummerDesignDay
8,2258833392.2845747
1716,0.0
2,1, 7,21, 0, 2,15.00,30.00,SummerDesignDay
8,2258650440.3541157
1716,0.0
2,1, 7,21, 0, 2,30.00,45.00,SummerDesignDay
8,2258421907.775438
1716,0.0
2,1, 7,21, 0, 2,45.00,60.00,SummerDesignDay
8,2258168363.8991
1716,0.0
2,1, 7,21, 0, 3, 0.00,15.00,SummerDesignDay
8,2258072735.276278
1716,0.0
2,1, 7,21, 0, 3,15.00,30.00,SummerDesignDay
8,2257972802.401367
1716,0.0
2,1, 7,21, 0, 3,30.00,45.00,SummerDesignDay
8,2257868229.845896
1716,0.0
2,1, 7,21, 0, 3,45.00,60.00,SummerDesignDay
8,2257759599.561424
1716,0.0
2,1, 7,21, 0, 4, 0.00,15.00,SummerDesignDay
8,2257647359.3362476
1716,0.0
2,1, 7,21, 0, 4,15.00,30.00,SummerDesignDay
8,2257531951.4640648
1716,0.0
2,1, 7,21, 0, 4,30.00,45.00,SummerDesignDay
8,2257413606.098988
1716,0.0
2,1, 7,21, 0, 4,45.00,60.00,SummerDesignDay
8,2257292745.2757656
1716,0.0
2,1, 7,21, 0, 5, 0.00,15.00,SummerDesignDay
8,2257236032.958139
1716,0.0
2,1, 7,21, 0, 5,15.00,30.00,SummerDesignDay
8,2257177836.761414
1716,0.0
2,1, 7,21, 0, 5,30.00,45.00,SummerDesignDay
8,2257117877.528443
1716,0.0
2,1, 7,21, 0, 5,45.00,60.00,SummerDesignDay
8,2257056788.7626688
1716,0.0
2,1, 7,21, 0, 6, 0.00,15.00,SummerDesignDay
8,2383173615.63489
1716,289025.401375798
2,1, 7,21, 0, 6,15.00,30.00,SummerDesignDay
8,2258945890.3104407
1716,0.0
2,1, 7,21, 0, 6,30.00,45.00,SummerDesignDay
8,2315716772.0750315
1716,0.0
2,1, 7,21, 0, 6,45.00,60.00,SummerDesignDay
8,2299605237.313051
1716,0.0
2,1, 7,21, 0, 7, 0.00,15.00,SummerDesignDay
8,2437140993.8491466
1716,27182191.996221704
2,1, 7,21, 0, 7,15.00,30.00,SummerDesignDay
8,2395201813.9297959
1716,0.0
2,1, 7,21, 0, 7,30.00,45.00,SummerDesignDay
8,2382509556.676268
1716,24584538.351696265
2,1, 7,21, 0, 7,45.00,60.00,SummerDesignDay
8,2392557111.536543
1716,24762919.162995846
2,1, 7,21, 0, 8, 0.00,15.00,SummerDesignDay
8,2688555611.1083858
1716,27096508.66469582
2,1, 7,21, 0, 8,15.00,30.00,SummerDesignDay
8,2655117837.8722579
1716,27033230.16190455
2,1, 7,21, 0, 8,30.00,45.00,SummerDesignDay
8,2732517596.0172588
1716,27062270.292568156
2,1, 7,21, 0, 8,45.00,60.00,SummerDesignDay
8,2677520160.064858
1716,27098929.1889383
2,1, 7,21, 0, 9, 0.00,15.00,SummerDesignDay
8,2685207822.13523
1716,61833429.20580511
2,1, 7,21, 0, 9,15.00,30.00,SummerDesignDay
8,2702008567.8855745
1716,40903388.51071314
2,1, 7,21, 0, 9,30.00,45.00,SummerDesignDay
8,2719495751.276162
1716,52713313.12967049
2,1, 7,21, 0, 9,45.00,60.00,SummerDesignDay
8,2736940093.9577577
1716,62429607.922169167
2,1, 7,21, 0,10, 0.00,15.00,SummerDesignDay
8,2754390288.33815
1716,51916727.98155698
2,1, 7,21, 0,10,15.00,30.00,SummerDesignDay
8,2771390700.8348648
1716,44417174.44027515
2,1, 7,21, 0,10,30.00,45.00,SummerDesignDay
8,2787834693.0571706
1716,64197994.66351782
2,1, 7,21, 0,10,45.00,60.00,SummerDesignDay
8,2804154375.617651
1716,64290695.619686108
2,1, 7,21, 0,11, 0.00,15.00,SummerDesignDay
8,2815877818.911598
1716,53576381.3564064
2,1, 7,21, 0,11,15.00,30.00,SummerDesignDay
8,2826240751.2078807
1716,43790132.72700842
2,1, 7,21, 0,11,30.00,45.00,SummerDesignDay
8,2826703127.7503798
1716,64830554.33305078
2,1, 7,21, 0,11,45.00,60.00,SummerDesignDay
8,2833423383.403764
1716,64897205.404896598
2,1, 7,21, 0,12, 0.00,15.00,SummerDesignDay
8,2833840882.6372458
1716,70098177.00143442
2,1, 7,21, 0,12,15.00,30.00,SummerDesignDay
8,2832517669.13492
1716,70510637.69504628
2,1, 7,21, 0,12,30.00,45.00,SummerDesignDay
8,2830088509.6558029
1716,69052433.25448792
2,1, 7,21, 0,12,45.00,60.00,SummerDesignDay
8,2828872686.8523519
1716,64142157.67014609
2,1, 7,21, 0,13, 0.00,15.00,SummerDesignDay
8,2827641922.246411
1716,83881837.89821702
2,1, 7,21, 0,13,15.00,30.00,SummerDesignDay
8,2829884197.2565257
1716,82163288.98625089
2,1, 7,21, 0,13,30.00,45.00,SummerDesignDay
8,2841906171.005231
1716,78953856.01693058
2,1, 7,21, 0,13,45.00,60.00,SummerDesignDay
8,2858143174.9144656
1716,78969633.93925919
2,1, 7,21, 0,14, 0.00,15.00,SummerDesignDay
8,2874271368.7750699
1716,76405964.58850187
2,1, 7,21, 0,14,15.00,30.00,SummerDesignDay
8,2890713809.351903
1716,76233945.02603652
2,1, 7,21, 0,14,30.00,45.00,SummerDesignDay
8,2907532757.4492805
1716,76240254.04623322
2,1, 7,21, 0,14,45.00,60.00,SummerDesignDay
8,2923982555.3852145
1716,76246134.70948863
2,1, 7,21, 0,15, 0.00,15.00,SummerDesignDay
8,2933770702.001012
1716,62718292.25858524
2,1, 7,21, 0,15,15.00,30.00,SummerDesignDay
8,2950611250.869101
1716,30924077.494534587
2,1, 7,21, 0,15,30.00,45.00,SummerDesignDay
8,2957460435.709326
1716,61765680.74915851
2,1, 7,21, 0,15,45.00,60.00,SummerDesignDay
8,2962271228.8204758
1716,59636845.17686032
2,1, 7,21, 0,16, 0.00,15.00,SummerDesignDay
8,2957541601.958008
1716,32884722.03200008
2,1, 7,21, 0,16,15.00,30.00,SummerDesignDay
8,2951398937.089383
1716,61231320.9011148
2,1, 7,21, 0,16,30.00,45.00,SummerDesignDay
8,2943715315.9974148
1716,40553012.99429811
2,1, 7,21, 0,16,45.00,60.00,SummerDesignDay
8,2934662509.718026
1716,51315297.801259089
2,1, 7,21, 0,17, 0.00,15.00,SummerDesignDay
8,2923900337.5118219
1716,67731728.92768905
2,1, 7,21, 0,17,15.00,30.00,SummerDesignDay
8,2912118017.4395349
1716,68305985.63811597
2,1, 7,21, 0,17,30.00,45.00,SummerDesignDay
8,2892272283.8401749
1716,68331094.56365299
2,1, 7,21, 0,17,45.00,60.00,SummerDesignDay
8,2896773170.960223
1716,57986770.37481301
2,1, 7,21, 0,18, 0.00,15.00,SummerDesignDay
8,2876297692.09768
1716,37706474.9838228
2,1, 7,21, 0,18,15.00,30.00,SummerDesignDay
8,2854286055.7828
1716,28791096.699061317
2,1, 7,21, 0,18,30.00,45.00,SummerDesignDay
8,2828864985.4280579
1716,57469831.43641752
2,1, 7,21, 0,18,45.00,60.00,SummerDesignDay
8,2810550164.92466
1716,28719747.790022199
2,1, 7,21, 0,19, 0.00,15.00,SummerDesignDay
8,2764722801.917887
1716,27681343.565956538
2,1, 7,21, 0,19,15.00,30.00,SummerDesignDay
8,2736072942.73152
1716,55149958.78450704
2,1, 7,21, 0,19,30.00,45.00,SummerDesignDay
8,2725930390.6955339
1716,27473274.058010829
2,1, 7,21, 0,19,45.00,60.00,SummerDesignDay
8,2707312153.8112804
1716,27504878.931393196
2,1, 7,21, 0,20, 0.00,15.00,SummerDesignDay
8,2676400643.000327
1716,26306640.888424089
2,1, 7,21, 0,20,15.00,30.00,SummerDesignDay
8,2654046623.588695
1716,26229051.386583996
2,1, 7,21, 0,20,30.00,45.00,SummerDesignDay
8,2639908916.8772337
1716,26230678.830105489
2,1, 7,21, 0,20,45.00,60.00,SummerDesignDay
8,2626977993.277724
1716,26231626.2815372
2,1, 7,21, 0,21, 0.00,15.00,SummerDesignDay
8,2616122305.637077
1716,26617262.423138955
2,1, 7,21, 0,21,15.00,30.00,SummerDesignDay
8,2606040402.520076
1716,26646873.601197334
2,1, 7,21, 0,21,30.00,45.00,SummerDesignDay
8,2596484536.556683
1716,26650939.18410129
2,1, 7,21, 0,21,45.00,60.00,SummerDesignDay
8,2587341659.6571018
1716,26655505.41900793
2,1, 7,21, 0,22, 0.00,15.00,SummerDesignDay
8,2578527301.424962
1716,25017239.602216864
2,1, 7,21, 0,22,15.00,30.00,SummerDesignDay
8,2569989930.397699
1716,0.0
2,1, 7,21, 0,22,30.00,45.00,SummerDesignDay
8,2561687066.908514
1716,24756566.584251863
2,1, 7,21, 0,22,45.00,60.00,SummerDesignDay
8,2553590851.1423685
1716,24918424.66929086
2,1, 7,21, 0,23, 0.00,15.00,SummerDesignDay
8,2257471519.877234
1716,0.0
2,1, 7,21, 0,23,15.00,30.00,SummerDesignDay
8,2258297571.911771
1716,26767392.838246809
2,1, 7,21, 0,23,30.00,45.00,SummerDesignDay
8,2259549687.463892
1716,182192.02248968179
2,1, 7,21, 0,23,45.00,60.00,SummerDesignDay
8,2260104979.6160347
1716,24442866.624220566
2,1, 7,21, 0,24, 0.00,15.00,SummerDesignDay
8,2266101666.965833
1716,0.0
2,1, 7,21, 0,24,15.00,30.00,SummerDesignDay
8,2273109383.359157
1716,24458459.506220696
2,1, 7,21, 0,24,30.00,45.00,SummerDesignDay
8,2261563374.4391376
1716,0.0
2,1, 7,21, 0,24,45.00,60.00,SummerDesignDay
8,2264024377.2962357
1716,24457478.999945284
1,TUCSON INTERNATIONAL AP ANN CLG .4% CONDNS WB=>MDB 1 HVAC Sizing Pass 1,  32.13,-110.95,  -7.00, 777.00
2,1, 7,21, 0, 1, 0.00,15.00,SummerDesignDay
8,2272466035.2946145
1716,0.0
2,1, 7,21, 0, 1,15.00,30.00,SummerDesignDay
8,2271347458.1888759
1716,0.0
2,1, 7,21, 0, 1,30.00,45.00,SummerDesignDay
8,2269814780.488506
1716,0.0
2,1, 7,21, 0, 1,45.00,60.00,SummerDesignDay
8,2268300881.501943
1716,0.0
2,1, 7,21, 0, 2, 0.00,15.00,SummerDesignDay
8,2267244495.322982
1716,0.0
2,1, 7,21, 0, 2,15.00,30.00,SummerDesignDay
8,2266259893.5214507
1716,0.0
2,1, 7,21, 0, 2,30.00,45.00,SummerDesignDay
8,2265321579.6929409
1716,0.0
2,1, 7,21, 0, 2,45.00,60.00,SummerDesignDay
8,2263930449.5483539
1716,0.0
2,1, 7,21, 0, 3, 0.00,15.00,SummerDesignDay
8,2261755813.3921816
1716,0.0
2,1, 7,21, 0, 3,15.00,30.00,SummerDesignDay
8,2259527781.4932615
1716,0.0
2,1, 7,21, 0, 3,30.00,45.00,SummerDesignDay
8,2257272935.411279
1716,0.0
2,1, 7,21, 0, 3,45.00,60.00,SummerDesignDay
8,2254993026.3602945
1716,0.0
2,1, 7,21, 0, 4, 0.00,15.00,SummerDesignDay
8,2252880626.8910329
1716,0.0
2,1, 7,21, 0, 4,15.00,30.00,SummerDesignDay
8,2252200742.187983
1716,0.0
2,1, 7,21, 0, 4,30.00,45.00,SummerDesignDay
8,2252397296.6249616
1716,0.0
2,1, 7,21, 0, 4,45.00,60.00,SummerDesignDay
8,2252597720.7325356
1716,0.0
2,1, 7,21, 0, 5, 0.00,15.00,SummerDesignDay
8,2252713424.1276485
1716,0.0
2,1, 7,21, 0, 5,15.00,30.00,SummerDesignDay
8,2252866469.34675
1716,0.0
2,1, 7,21, 0, 5,30.00,45.00,SummerDesignDay
8,2253019695.324826
1716,0.0
2,1, 7,21, 0, 5,45.00,60.00,SummerDesignDay
8,2253171721.289932
1716,0.0
2,1, 7,21, 0, 6, 0.00,15.00,SummerDesignDay
8,2369678063.272364
1716,0.0
2,1, 7,21, 0, 6,15.00,30.00,SummerDesignDay
8,2252179939.309183
1716,0.0
2,1, 7,21, 0, 6,30.00,45.00,SummerDesignDay
8,2300378926.0948746
1716,0.0
2,1, 7,21, 0, 6,45.00,60.00,SummerDesignDay
8,2279954164.742462
1716,0.0
2,1, 7,21, 0, 7, 0.00,15.00,SummerDesignDay
8,2366565808.415426
1716,27188645.66760319
2,1, 7,21, 0, 7,15.00,30.00,SummerDesignDay
8,2314503437.894076
1716,96861.59361715896
2,1, 7,21, 0, 7,30.00,45.00,SummerDesignDay
8,2317561618.3951079
1716,24872919.42747811
2,1, 7,21, 0, 7,45.00,60.00,SummerDesignDay
8,2325746606.448092
1716,24808992.5216152
2,1, 7,21, 0, 8, 0.00,15.00,SummerDesignDay
8,2564343195.926047
1716,27095908.177445719
2,1, 7,21, 0, 8,15.00,30.00,SummerDesignDay
8,2505916282.013971
1716,27036805.44003137
2,1, 7,21, 0, 8,30.00,45.00,SummerDesignDay
8,2497782686.6783587
1716,27029320.574445614
2,1, 7,21, 0, 8,45.00,60.00,SummerDesignDay
8,2484327569.199421
1716,27064474.470806663
2,1, 7,21, 0, 9, 0.00,15.00,SummerDesignDay
8,2497370182.310849
1716,61827402.965426128
2,1, 7,21, 0, 9,15.00,30.00,SummerDesignDay
8,2516376571.276219
1716,40246925.48841576
2,1, 7,21, 0, 9,30.00,45.00,SummerDesignDay
8,2536703506.374909
1716,53365540.352364439
2,1, 7,21, 0, 9,45.00,60.00,SummerDesignDay
8,2556305306.972195
1716,62414900.17160161
2,1, 7,21, 0,10, 0.00,15.00,SummerDesignDay
8,2576290811.274208
1716,51348241.487608078
2,1, 7,21, 0,10,15.00,30.00,SummerDesignDay
8,2595777455.630657
1716,44992627.49553812
2,1, 7,21, 0,10,30.00,45.00,SummerDesignDay
8,2613981438.77893
1716,64199202.71391882
2,1, 7,21, 0,10,45.00,60.00,SummerDesignDay
8,2631220089.9515717
1716,64293107.09230076
2,1, 7,21, 0,11, 0.00,15.00,SummerDesignDay
8,2638187868.396641
1716,53017673.13963271
2,1, 7,21, 0,11,15.00,30.00,SummerDesignDay
8,2650781683.863634
1716,44345180.0644142
2,1, 7,21, 0,11,30.00,45.00,SummerDesignDay
8,2663830800.9227769
1716,64831353.9979177
2,1, 7,21, 0,11,45.00,60.00,SummerDesignDay
8,2676218661.9756448
1716,64899311.66904405
2,1, 7,21, 0,12, 0.00,15.00,SummerDesignDay
8,2681277409.783008
1716,70098969.07456781
2,1, 7,21, 0,12,15.00,30.00,SummerDesignDay
8,2684554279.190875
1716,70510988.6186585
2,1, 7,21, 0,12,30.00,45.00,SummerDesignDay
8,2687213425.7700178
1716,68584905.83011674
2,1, 7,21, 0,12,45.00,60.00,SummerDesignDay
8,2690242000.690119
1716,64137618.70745955
2,1, 7,21, 0,13, 0.00,15.00,SummerDesignDay
8,2692564187.908294
1716,83881535.46026047
2,1, 7,21, 0,13,15.00,30.00,SummerDesignDay
8,2697691676.195067
1716,82695745.05197
2,1, 7,21, 0,13,30.00,45.00,SummerDesignDay
8,2710824148.542952
1716,78952626.26982181
2,1, 7,21, 0,13,45.00,60.00,SummerDesignDay
8,2728623379.2197315
1716,78968195.95507053
2,1, 7,21, 0,14, 0.00,15.00,SummerDesignDay
8,2745254579.5502398
1716,76404837.62447618
2,1, 7,21, 0,14,15.00,30.00,SummerDesignDay
8,2762234631.125463
1716,76232923.13169393
2,1, 7,21, 0,14,30.00,45.00,SummerDesignDay
8,2779158173.231248
1716,76239255.47452322
2,1, 7,21, 0,14,45.00,60.00,SummerDesignDay
8,2795530196.6905419
1716,76245147.7347948
2,1, 7,21, 0,15, 0.00,15.00,SummerDesignDay
8,2804279877.136874
1716,62721779.3869818
2,1, 7,21, 0,15,15.00,30.00,SummerDesignDay
8,2810751034.4496557
1716,30920269.854520438
2,1, 7,21, 0,15,30.00,45.00,SummerDesignDay
8,2815933619.698662
1716,61767971.99222022
2,1, 7,21, 0,15,45.00,60.00,SummerDesignDay
8,2827890237.33295
1716,58813257.39667283
2,1, 7,21, 0,16, 0.00,15.00,SummerDesignDay
8,2822650277.130778
1716,33699660.882331069
2,1, 7,21, 0,16,15.00,30.00,SummerDesignDay
8,2815150384.9723355
1716,61234252.644131269
2,1, 7,21, 0,16,30.00,45.00,SummerDesignDay
8,2806561024.8471395
1716,39698205.52597953
2,1, 7,21, 0,16,45.00,60.00,SummerDesignDay
8,2797107249.2528045
1716,52166050.280400838
2,1, 7,21, 0,17, 0.00,15.00,SummerDesignDay
8,2785965402.678044
1716,67732857.27075687
2,1, 7,21, 0,17,15.00,30.00,SummerDesignDay
8,2774155378.4491264
1716,68307195.74239153
2,1, 7,21, 0,17,30.00,45.00,SummerDesignDay
8,2755884685.7189595
1716,68332268.26123372
2,1, 7,21, 0,17,45.00,60.00,SummerDesignDay
8,2739448172.7367455
1716,57349053.48977372
2,1, 7,21, 0,18, 0.00,15.00,SummerDesignDay
8,2732119302.6738188
1716,38244211.43783728
2,1, 7,21, 0,18,15.00,30.00,SummerDesignDay
8,2718514099.636129
1716,28789331.917556399
2,1, 7,21, 0,18,30.00,45.00,SummerDesignDay
8,2694274942.4510376
1716,57473650.60976615
2,1, 7,21, 0,18,45.00,60.00,SummerDesignDay
8,2667080104.312065
1716,28718611.11256235
2,1, 7,21, 0,19, 0.00,15.00,SummerDesignDay
8,2638231756.795069
1716,27679922.42072298
2,1, 7,21, 0,19,15.00,30.00,SummerDesignDay
8,2612732186.705662
1716,55156273.908765379
2,1, 7,21, 0,19,30.00,45.00,SummerDesignDay
8,2595944536.9204804
1716,27472989.03128114
2,1, 7,21, 0,19,45.00,60.00,SummerDesignDay
8,2596895561.297491
1716,27503699.08275622
2,1, 7,21, 0,20, 0.00,15.00,SummerDesignDay
8,2574595121.484822
1716,26306413.672604953
2,1, 7,21, 0,20,15.00,30.00,SummerDesignDay
8,2557956734.8417246
1716,26229135.05698079
2,1, 7,21, 0,20,30.00,45.00,SummerDesignDay
8,2548998838.283186
1716,26230798.96169205
2,1, 7,21, 0,20,45.00,60.00,SummerDesignDay
8,2541262610.2141897
1716,26231743.816278288
2,1, 7,21, 0,21, 0.00,15.00,SummerDesignDay
8,2534318188.5778524
1716,26616972.294615095
2,1, 7,21, 0,21,15.00,30.00,SummerDesignDay
8,2527866314.1523048
1716,26646464.31474437
2,1, 7,21, 0,21,30.00,45.00,SummerDesignDay
8,2521689240.340815
1716,26650513.13423193
2,1, 7,21, 0,21,45.00,60.00,SummerDesignDay
8,2515282238.80878
1716,26655074.62554911
2,1, 7,21, 0,22, 0.00,15.00,SummerDesignDay
8,2508624349.6887447
1716,25019368.633866177
2,1, 7,21, 0,22,15.00,30.00,SummerDesignDay
8,2501840609.2894027
1716,0.0
2,1, 7,21, 0,22,30.00,45.00,SummerDesignDay
8,2495024374.049628
1716,24758837.340460924
2,1, 7,21, 0,22,45.00,60.00,SummerDesignDay
8,2488219587.290954
1716,24921569.399425795
2,1, 7,21, 0,23, 0.00,15.00,SummerDesignDay
8,2265083159.6902706
1716,0.0
2,1, 7,21, 0,23,15.00,30.00,SummerDesignDay
8,2269189177.233419
1716,25491702.836325747
2,1, 7,21, 0,23,30.00,45.00,SummerDesignDay
8,2269120419.6006286
1716,851805.7850364138
2,1, 7,21, 0,23,45.00,60.00,SummerDesignDay
8,2268867823.864198
1716,24446720.2847327
2,1, 7,21, 0,24, 0.00,15.00,SummerDesignDay
8,2267033376.686745
1716,0.0
2,1, 7,21, 0,24,15.00,30.00,SummerDesignDay
8,2289879476.212302
1716,24446147.795932484
2,1, 7,21, 0,24,30.00,45.00,SummerDesignDay
8,2273981936.818773
1716,0.0
2,1, 7,21, 0,24,45.00,60.00,SummerDesignDay
8,2275539165.5931684
1716,24459909.605267034
1,TUCSON INTERNATIONAL AP ANN HTG 99.6% CONDNS DB 1 HVAC Sizing Pass 1,  32.13,-110.95,  -7.00, 777.00
2,1,12,21, 0, 1, 0.00,15.00,WinterDesignDay
8,506747819.9873362
1716,953179998.8743259
2,1,12,21, 0, 1,15.00,30.00,WinterDesignDay
8,506794824.33611568
1716,974620607.9238808
2,1,12,21, 0, 1,30.00,45.00,WinterDesignDay
8,506819131.55236
1716,982605970.503665
2,1,12,21, 0, 1,45.00,60.00,WinterDesignDay
8,506852386.8374439
1716,994616258.5585286
2,1,12,21, 0, 2, 0.00,15.00,WinterDesignDay
8,506878356.94557926
1716,1003306990.5364982
2,1,12,21, 0, 2,15.00,30.00,WinterDesignDay
8,506906659.1636346
1716,1012961093.9014815
2,1,12,21, 0, 2,30.00,45.00,WinterDesignDay
8,506928156.35722967
1716,1019387191.2123253
2,1,12,21, 0, 2,45.00,60.00,WinterDesignDay
8,506954884.3632427
1716,1028267953.3406785
2,1,12,21, 0, 3, 0.00,15.00,WinterDesignDay
8,506972178.92973539
1716,1032949404.9128263
2,1,12,21, 0, 3,15.00,30.00,WinterDesignDay
8,506996113.7441428
1716,1040860468.6841363
2,1,12,21, 0, 3,30.00,45.00,WinterDesignDay
8,507016830.47523549
1716,1047106201.4413616
2,1,12,21, 0, 3,45.00,60.00,WinterDesignDay
8,507032335.8780025
1716,1051351251.7023729
2,1,12,21, 0, 4, 0.00,15.00,WinterDesignDay
8,507056146.5134952
1716,1059240373.6430458
2,1,12,21, 0, 4,15.00,30.00,WinterDesignDay
8,507068938.4236568
1716,1062258795.5951467
2,1,12,21, 0, 4,30.00,45.00,WinterDesignDay
8,507090551.5979359
1716,1069463052.8133814
2,1,12,21, 0, 4,45.00,60.00,WinterDesignDay
8,507104425.60622456
1716,1072974393.7669999
2,1,12,21, 0, 5, 0.00,15.00,WinterDesignDay
8,507117296.2000046
1716,1076500340.0680884
2,1,12,21, 0, 5,15.00,30.00,WinterDesignDay
8,507138199.5709344
1716,1083346929.982301
2,1,12,21, 0, 5,30.00,45.00,WinterDesignDay
8,507147177.62394878
1716,1085020076.474158
2,1,12,21, 0, 5,45.00,60.00,WinterDesignDay
8,507161497.7052784
1716,1089458643.1086212
2,1,12,21, 0, 6, 0.00,15.00,WinterDesignDay
8,546926915.5468328
1716,2118396280.8401824
2,1,12,21, 0, 6,15.00,30.00,WinterDesignDay
8,510091982.7166623
1716,1707259257.024916
2,1,12,21, 0, 6,30.00,45.00,WinterDesignDay
8,510026209.62182798
1716,1842803734.8688703
2,1,12,21, 0, 6,45.00,60.00,WinterDesignDay
8,509555253.6339886
1716,1669945407.7820328
2,1,12,21, 0, 7, 0.00,15.00,WinterDesignDay
8,653222070.7559459
1716,3669339280.539154
2,1,12,21, 0, 7,15.00,30.00,WinterDesignDay
8,616717669.2911774
1716,3115068663.4472105
2,1,12,21, 0, 7,30.00,45.00,WinterDesignDay
8,585084655.008113
1716,2621609225.0289609
2,1,12,21, 0, 7,45.00,60.00,WinterDesignDay
8,513798184.92879948
1716,2518923362.13342
2,1,12,21, 0, 8, 0.00,15.00,WinterDesignDay
8,729286037.134587
1716,4311501897.915768
2,1,12,21, 0, 8,15.00,30.00,WinterDesignDay
8,723001977.9279269
1716,4162544403.3671925
2,1,12,21, 0, 8,30.00,45.00,WinterDesignDay
8,663019215.0299662
1716,3782170939.0050089
2,1,12,21, 0, 8,45.00,60.00,WinterDesignDay
8,601612821.8412919
1716,3303742080.984059
2,1,12,21, 0, 9, 0.00,15.00,WinterDesignDay
8,597763116.229418
1716,3193254984.213251
2,1,12,21, 0, 9,15.00,30.00,WinterDesignDay
8,595563895.067435
1716,3220752948.098741
2,1,12,21, 0, 9,30.00,45.00,WinterDesignDay
8,593901967.9886427
1716,3153445964.266869
2,1,12,21, 0, 9,45.00,60.00,WinterDesignDay
8,592220098.0390802
1716,3125086825.3106639
2,1,12,21, 0,10, 0.00,15.00,WinterDesignDay
8,590794578.171412
1716,3120103792.928961
2,1,12,21, 0,10,15.00,30.00,WinterDesignDay
8,589992121.9333286
1716,3088677913.6871888
2,1,12,21, 0,10,30.00,45.00,WinterDesignDay
8,589768198.2780355
1716,3089213559.8059527
2,1,12,21, 0,10,45.00,60.00,WinterDesignDay
8,589484478.1302526
1716,3053717513.738479
2,1,12,21, 0,11, 0.00,15.00,WinterDesignDay
8,589263578.0678668
1716,3053940689.1801817
2,1,12,21, 0,11,15.00,30.00,WinterDesignDay
8,588968189.4697727
1716,3025257708.1574838
2,1,12,21, 0,11,30.00,45.00,WinterDesignDay
8,588841271.8316442
1716,3007656817.09358
2,1,12,21, 0,11,45.00,60.00,WinterDesignDay
8,588571299.0466408
1716,3020317601.5662367
2,1,12,21, 0,12, 0.00,15.00,WinterDesignDay
8,588429691.6076881
1716,2992731047.183281
2,1,12,21, 0,12,15.00,30.00,WinterDesignDay
8,588218363.7265955
1716,2993297678.2917916
2,1,12,21, 0,12,30.00,45.00,WinterDesignDay
8,588075311.0092976
1716,2990648488.6336305
2,1,12,21, 0,12,45.00,60.00,WinterDesignDay
8,587914481.9136137
1716,2950137801.5734808
2,1,12,21, 0,13, 0.00,15.00,WinterDesignDay
8,587736323.1791552
1716,2968146827.774395
2,1,12,21, 0,13,15.00,30.00,WinterDesignDay
8,587621699.3517187
1716,2927408637.4529
2,1,12,21, 0,13,30.00,45.00,WinterDesignDay
8,587512289.3210894
1716,2952098387.640304
2,1,12,21, 0,13,45.00,60.00,WinterDesignDay
8,587331531.2713419
1716,2907310177.48485
2,1,12,21, 0,14, 0.00,15.00,WinterDesignDay
8,587256687.3816416
1716,2931751911.7371666
2,1,12,21, 0,14,15.00,30.00,WinterDesignDay
8,587109600.8089713
1716,2891534318.677909
2,1,12,21, 0,14,30.00,45.00,WinterDesignDay
8,587030870.6717137
1716,2895084731.9284689
2,1,12,21, 0,14,45.00,60.00,WinterDesignDay
8,586921870.4400425
1716,2896576862.0988867
2,1,12,21, 0,15, 0.00,15.00,WinterDesignDay
8,586801041.6661275
1716,2866292660.6999919
2,1,12,21, 0,15,15.00,30.00,WinterDesignDay
8,586726965.7346802
1716,2860804757.0371668
2,1,12,21, 0,15,30.00,45.00,WinterDesignDay
8,586602741.9411365
1716,2875271901.9125239
2,1,12,21, 0,15,45.00,60.00,WinterDesignDay
8,586549846.3653038
1716,2846803589.3158476
2,1,12,21, 0,16, 0.00,15.00,WinterDesignDay
8,586444865.2332937
1716,2835962989.349631
2,1,12,21, 0,16,15.00,30.00,WinterDesignDay
8,586387869.1741704
1716,2832892442.92029
2,1,12,21, 0,16,30.00,45.00,WinterDesignDay
8,586267330.8762016
1716,2820463433.9443957
2,1,12,21, 0,16,45.00,60.00,WinterDesignDay
8,586242026.82633
1716,2819716512.493204
2,1,12,21, 0,17, 0.00,15.00,WinterDesignDay
8,586147206.824714
1716,2812264845.606861
2,1,12,21, 0,17,15.00,30.00,WinterDesignDay
8,586079868.1063459
1716,2832904323.4210269
2,1,12,21, 0,17,30.00,45.00,WinterDesignDay
8,586012685.541089
1716,2798735219.322818
2,1,12,21, 0,17,45.00,60.00,WinterDesignDay
8,585935203.6257367
1716,2791945233.597803
2,1,12,21, 0,18, 0.00,15.00,WinterDesignDay
8,585888138.06215
1716,2786028416.5711538
2,1,12,21, 0,18,15.00,30.00,WinterDesignDay
8,585829958.2745621
1716,2755953585.8007919
2,1,12,21, 0,18,30.00,45.00,WinterDesignDay
8,585769019.4288273
1716,2775450540.7149689
2,1,12,21, 0,18,45.00,60.00,WinterDesignDay
8,585724954.81961
1716,2769750169.5932395
2,1,12,21, 0,19, 0.00,15.00,WinterDesignDay
8,585648715.9897567
1716,2763764715.9869668
2,1,12,21, 0,19,15.00,30.00,WinterDesignDay
8,585609749.5895153
1716,2734575301.1460258
2,1,12,21, 0,19,30.00,45.00,WinterDesignDay
8,585554801.1755858
1716,2753891854.808609
2,1,12,21, 0,19,45.00,60.00,WinterDesignDay
8,585538149.4333673
1716,2753241777.1147735
2,1,12,21, 0,20, 0.00,15.00,WinterDesignDay
8,585338884.6273234
1716,2717585163.0070159
2,1,12,21, 0,20,15.00,30.00,WinterDesignDay
8,585316534.886784
1716,2715934336.567471
2,1,12,21, 0,20,30.00,45.00,WinterDesignDay
8,585250196.584278
1716,2709719761.1942389
2,1,12,21, 0,20,45.00,60.00,WinterDesignDay
8,585215121.6503906
1716,2706337429.520726
2,1,12,21, 0,21, 0.00,15.00,WinterDesignDay
8,585186598.1683233
1716,2702497942.600307
2,1,12,21, 0,21,15.00,30.00,WinterDesignDay
8,585147763.6802795
1716,2697724690.1688778
2,1,12,21, 0,21,30.00,45.00,WinterDesignDay
8,585105561.9940207
1716,2694367682.2530677
2,1,12,21, 0,21,45.00,60.00,WinterDesignDay
8,585064155.0665649
1716,2689852287.5619919
2,1,12,21, 0,22, 0.00,15.00,WinterDesignDay
8,584999140.9755602
1716,2682983843.174635
2,1,12,21, 0,22,15.00,30.00,WinterDesignDay
8,584998459.9311049
1716,2683114261.695576
2,1,12,21, 0,22,30.00,45.00,WinterDesignDay
8,584942475.2751676
1716,2677926919.28598
2,1,12,21, 0,22,45.00,60.00,WinterDesignDay
8,584905850.4429526
1716,2673728470.465095
2,1,12,21, 0,23, 0.00,15.00,WinterDesignDay
8,505562432.28166028
1716,186379025.60048769
2,1,12,21, 0,23,15.00,30.00,WinterDesignDay
8,506371026.579349
1716,470723872.9739784
2,1,12,21, 0,23,30.00,45.00,WinterDesignDay
8,506665532.98121306
1716,706460781.7629116
2,1,12,21, 0,23,45.00,60.00,WinterDesignDay
8,506588537.33027926
1716,819154977.88616
2,1,12,21, 0,24, 0.00,15.00,WinterDesignDay
8,506578745.49340507
1716,883890147.3123896
2,1,12,21, 0,24,15.00,30.00,WinterDesignDay
8,506637148.7983925
1716,913581188.7734807
2,1,12,21, 0,24,30.00,45.00,WinterDesignDay
8,506680673.59025606
1716,929499824.0683745
2,1,12,21, 0,24,45.00,60.00,WinterDesignDay
8,506714921.1216315
1716,940481628.9037262
1,TUCSON INTERNATIONAL AP ANN CLG .4% CONDNS DB=>MWB 1,  32.13,-110.95,  -7.00, 777.00
2,1, 7,21, 0, 1, 0.00,15.00,SummerDesignDay
8,2268260036.8456676
1716,0.0
2,1, 7,21, 0, 1,15.00,30.00,SummerDesignDay
8,2267934260.392376
1716,0.0
2,1, 7,21, 0, 1,30.00,45.00,SummerDesignDay
8,2268091397.39792
1716,0.0
2,1, 7,21, 0, 1,45.00,60.00,SummerDesignDay
8,2267614723.7764675
1716,0.0
2,1, 7,21, 0, 2, 0.00,15.00,SummerDesignDay
8,2267453035.6551849
1716,0.0
2,1, 7,21, 0, 2,15.00,30.00,SummerDesignDay
8,2267258765.6000297
1716,0.0
2,1, 7,21, 0, 2,30.00,45.00,SummerDesignDay
8,2267019322.6120336
1716,0.0
2,1, 7,21, 0, 2,45.00,60.00,SummerDesignDay
8,2266755188.562782
1716,0.0
2,1, 7,21, 0, 3, 0.00,15.00,SummerDesignDay
8,2266651385.66673
1716,0.0
2,1, 7,21, 0, 3,15.00,30.00,SummerDesignDay
8,2266543366.036424
1716,0.0
2,1, 7,21, 0, 3,30.00,45.00,SummerDesignDay
8,2266430833.9739987
1716,0.0
2,1, 7,21, 0, 3,45.00,60.00,SummerDesignDay
8,2266314374.4217998
1716,0.0
2,1, 7,21, 0, 4, 0.00,15.00,SummerDesignDay
8,2266194438.1566789
1716,0.0
2,1, 7,21, 0, 4,15.00,30.00,SummerDesignDay
8,2266071470.5149257
1716,0.0
2,1, 7,21, 0, 4,30.00,45.00,SummerDesignDay
8,2265945704.6612756
1716,0.0
2,1, 7,21, 0, 4,45.00,60.00,SummerDesignDay
8,2265817565.799235
1716,0.0
2,1, 7,21, 0, 5, 0.00,15.00,SummerDesignDay
8,2265756082.041402
1716,0.0
2,1, 7,21, 0, 5,15.00,30.00,SummerDesignDay
8,2265693180.0949757
1716,0.0
2,1, 7,21, 0, 5,30.00,45.00,SummerDesignDay
8,2265628581.6486709
1716,0.0
2,1, 7,21, 0, 5,45.00,60.00,SummerDesignDay
8,2265562921.1592156
1716,0.0
2,1, 7,21, 0, 6, 0.00,15.00,SummerDesignDay
8,2391054774.560002
1716,289025.401375798
2,1, 7,21, 0, 6,15.00,30.00,SummerDesignDay
8,2267450054.503484
1716,0.0
2,1, 7,21, 0, 6,30.00,45.00,SummerDesignDay
8,2323998037.226274
1716,0.0
2,1, 7,21, 0, 6,45.00,60.00,SummerDesignDay
8,2307915684.5768415
1716,0.0
2,1, 7,21, 0, 7, 0.00,15.00,SummerDesignDay
8,2444611061.210286
1716,27182191.996237037
2,1, 7,21, 0, 7,15.00,30.00,SummerDesignDay
8,2402807631.2686326
1716,0.0
2,1, 7,21, 0, 7,30.00,45.00,SummerDesignDay
8,2390072918.13584
1716,24584538.351704044
2,1, 7,21, 0, 7,45.00,60.00,SummerDesignDay
8,2400052448.7558057
1716,24762919.163073183
2,1, 7,21, 0, 8, 0.00,15.00,SummerDesignDay
8,2692385386.4019825
1716,27096508.664676418
2,1, 7,21, 0, 8,15.00,30.00,SummerDesignDay
8,2657475012.2157638
1716,27033230.16189059
2,1, 7,21, 0, 8,30.00,45.00,SummerDesignDay
8,2732886757.206005
1716,27062270.292568909
2,1, 7,21, 0, 8,45.00,60.00,SummerDesignDay
8,2679958531.0062849
1716,27098929.188947988
2,1, 7,21, 0, 9, 0.00,15.00,SummerDesignDay
8,2687412119.443057
1716,61833429.205788347
2,1, 7,21, 0, 9,15.00,30.00,SummerDesignDay
8,2703793917.624622
1716,40903388.51619483
2,1, 7,21, 0, 9,30.00,45.00,SummerDesignDay
8,2720878354.9822709
1716,52713313.12434945
2,1, 7,21, 0, 9,45.00,60.00,SummerDesignDay
8,2737910332.407221
1716,62429607.92214735
2,1, 7,21, 0,10, 0.00,15.00,SummerDesignDay
8,2754862298.4543559
1716,51916727.98653783
2,1, 7,21, 0,10,15.00,30.00,SummerDesignDay
8,2771407020.5223157
1716,44417174.43531682
2,1, 7,21, 0,10,30.00,45.00,SummerDesignDay
8,2787414204.9338977
1716,64197994.6635089
2,1, 7,21, 0,10,45.00,60.00,SummerDesignDay
8,2803313471.538095
1716,64290695.61966645
2,1, 7,21, 0,11, 0.00,15.00,SummerDesignDay
8,2815237733.7601735
1716,53576381.36218829
2,1, 7,21, 0,11,15.00,30.00,SummerDesignDay
8,2825685409.832105
1716,43790132.72142509
2,1, 7,21, 0,11,30.00,45.00,SummerDesignDay
8,2826065999.585746
1716,64830554.33322768
2,1, 7,21, 0,11,45.00,60.00,SummerDesignDay
8,2832621530.5563156
1716,64897205.742319907
2,1, 7,21, 0,12, 0.00,15.00,SummerDesignDay
8,2832907643.407392
1716,70098177.00164351
2,1, 7,21, 0,12,15.00,30.00,SummerDesignDay
8,2831675515.630043
1716,70510637.69514269
2,1, 7,21, 0,12,30.00,45.00,SummerDesignDay
8,2829647227.6407897
1716,69052432.98054877
2,1, 7,21, 0,12,45.00,60.00,SummerDesignDay
8,2828755978.6012217
1716,64142157.667520787
2,1, 7,21, 0,13, 0.00,15.00,SummerDesignDay
8,2827749236.5057265
1716,83881837.8980414
2,1, 7,21, 0,13,15.00,30.00,SummerDesignDay
8,2830114406.651214
1716,82163289.2986898
2,1, 7,21, 0,13,30.00,45.00,SummerDesignDay
8,2841889053.683705
1716,78953856.01603964
2,1, 7,21, 0,13,45.00,60.00,SummerDesignDay
8,2857664322.418883
1716,78969633.93825794
2,1, 7,21, 0,14, 0.00,15.00,SummerDesignDay
8,2873121220.1151888
1716,76405964.58769621
2,1, 7,21, 0,14,15.00,30.00,SummerDesignDay
8,2889807052.2687046
1716,76233945.02529489
2,1, 7,21, 0,14,30.00,45.00,SummerDesignDay