Program Version,EnergyPlus, Version 9.4.0-998c4b761e, YMD=2022.04.20 08:19
1,5,Environment Title[],Latitude[deg],Longitude[deg],Time Zone[],Elevation[m]
2,8,Day of Simulation[],Month[],Day of Month[],DST Indicator[1=yes 0=no],Hour[],StartMinute[],EndMinute[],DayType
3,5,Cumulative Day of Simulation[],Month[],Day of Month[],DST Indicator[1=yes 0=no],DayType  ! When Daily Report Variables Requested
4,2,Cumulative Days of Simulation[],Month[]  ! When Monthly Report Variables Requested
5,1,Cumulative Days of Simulation[] ! When Run Period Report Variables Requested
6,1,Calendar Year of Simulation[] ! When Annual Report Variables Requested
7,1,Environment,Site Outdoor Air Drybulb Temperature [C] !TimeStep
665,1,SURFACE 90,Surface Outside Face Beam Solar Incident Angle Cosine Value [] !TimeStep
666,1,SURFACE 14,Surface Outside Face Beam Solar Incident Angle Cosine Value [] !TimeStep
667,1,SUB SURFACE 1,Surface Outside Face Beam Solar Incident Angle Cosine Value [] !TimeStep
668,1,SUB SURFACE 1,Surface Window Total Glazing Layers Absorbed Solar Radiation Rate [W] !TimeStep
669,1,SUB SURFACE 1,Surface Window Front Face Temperature Layer 1 [C] !TimeStep
670,1,SURFACE 44,Surface Outside Face Beam Solar Incident Angle Cosine Value [] !TimeStep
671,1,SUB SURFACE 7,Surface Outside Face Beam Solar Incident Angle Cosine Value [] !TimeStep
672,1,SUB SURFACE 7,Surface Window Total Glazing Layers Absorbed Solar Radiation Rate [W] !TimeStep
673,1,SUB SURFACE 7,Surface Window Front Face Temperature Layer 1 [C] !TimeStep
674,1,SURFACE 74,Surface Outside Face Beam Solar Incident Angle Cosine Value [] !TimeStep
675,1,SURFACE 78,Surface Outside Face Beam Solar Incident Angle Cosine Value [] !TimeStep
676,1,SUB SURFACE 10,Surface Outside Face Beam Solar Incident Angle Cosine Value [] !TimeStep
677,1,SUB SURFACE 10,Surface Window Total Glazing Layers Absorbed Solar Radiation Rate [W] !TimeStep
678,1,SUB SURFACE 10,Surface Window Front Face Temperature Layer 1 [C] !TimeStep
679,1,SURFACE 8,Surface Outside Face Beam Solar Incident Angle Cosine Value [] !TimeStep
680,1,SUB SURFACE 4,Surface Outside Face Beam Solar Incident Angle Cosine Value [] !TimeStep
681,1,SUB SURFACE 4,Surface Window Total Glazing Layers Absorbed Solar Radiation Rate [W] !TimeStep
682,1,SUB SURFACE 4,Surface Window Front Face Temperature Layer 1 [C] !TimeStep
683,1,SURFACE 38,Surface Outside Face Beam Solar Incident Angle Cosine Value [] !TimeStep
684,1,SUB SURFACE 5,Surface Outside Face Beam Solar Incident Angle Cosine Value [] !TimeStep
685,1,SUB SURFACE 5,Surface Window Total Glazing Layers Absorbed Solar Radiation Rate [W] !TimeStep
686,1,SUB SURFACE 5,Surface Window Front Face Temperature Layer 1 [C] !TimeStep
687,1,SURFACE 68,Surface Outside Face Beam Solar Incident Angle Cosine Value [] !TimeStep
688,1,SURFACE 72,Surface Outside Face Beam Solar Incident Angle Cosine Value [] !TimeStep
689,1,SUB SURFACE 12,Surface Outside Face Beam Solar Incident Angle Cosine Value [] !TimeStep
690,1,SUB SURFACE 12,Surface Window Total Glazing Layers Absorbed Solar Radiation Rate [W] !TimeStep
691,1,SUB SURFACE 12,Surface Window Front Face Temperature Layer 1 [C] !TimeStep
692,1,SURFACE 20,Surface Outside Face Beam Solar Incident Angle Cosine Value [] !TimeStep
693,1,SUB SURFACE 2,Surface Outside Face Beam Solar Incident Angle Cosine Value [] !TimeStep
694,1,SUB SURFACE 2,Surface Window Total Glazing Layers Absorbed Solar Radiation Rate [W] !TimeStep
695,1,SUB SURFACE 2,Surface Window Front Face Temperature Layer 1 [C] !TimeStep
696,1,SURFACE 50,Surface Outside Face Beam Solar Incident Angle Cosine Value [] !TimeStep
697,1,SUB SURFACE 6,Surface Outside Face Beam Solar Incident Angle Cosine Value [] !TimeStep
698,1,SUB SURFACE 6,Surface Window Total Glazing Layers Absorbed Solar Radiation Rate [W] !TimeStep
699,1,SUB SURFACE 6,Surface Window Front Face Temperature Layer 1 [C] !TimeStep
700,1,SURFACE 80,Surface Outside Face Beam Solar Incident Angle Cosine Value [] !TimeStep
701,1,SURFACE 84,Surface Outside Face Beam Solar Incident Angle Cosine Value [] !TimeStep
702,1,SUB SURFACE 11,Surface Outside Face Beam Solar Incident Angle Cosine Value [] !TimeStep
703,1,SUB SURFACE 11,Surface Window Total Glazing Layers Absorbed Solar Radiation Rate [W] !TimeStep
704,1,SUB SURFACE 11,Surface Window Front Face Temperature Layer 1 [C] !TimeStep
705,1,SURFACE 2,Surface Outside Face Beam Solar Incident Angle Cosine Value [] !TimeStep
706,1,SUB SURFACE 3,Surface Outside Face Beam Solar Incident Angle Cosine Value [] !TimeStep
707,1,SUB SURFACE 3,Surface Window Total Glazing Layers Absorbed Solar Radiation Rate [W] !TimeStep
708,1,SUB SURFACE 3,Surface Window Front Face Temperature Layer 1 [C] !TimeStep
709,1,SURFACE 32,Surface Outside Face Beam Solar Incident Angle Cosine Value [] !TimeStep
710,1,SUB SURFACE 8,Surface Outside Face Beam Solar Incident Angle Cosine Value [] !TimeStep
711,1,SUB SURFACE 8,Surface Window Total Glazing Layers Absorbed Solar Radiation Rate [W] !TimeStep
712,1,SUB SURFACE 8,Surface Window Front Face Temperature Layer 1 [C] !TimeStep
713,1,SURFACE 62,Surface Outside Face Beam Solar Incident Angle Cosine Value [] !TimeStep
714,1,SURFACE 66,Surface Outside Face Beam Solar Incident Angle Cosine Value [] !TimeStep
715,1,SUB SURFACE 9,Surface Outside Face Beam Solar Incident Angle Cosine Value [] !TimeStep
716,1,SUB SURFACE 9,Surface Window Total Glazing Layers Absorbed Solar Radiation Rate [W] !TimeStep
717,1,SUB SURFACE 9,Surface Window Front Face Temperature Layer 1 [C] !TimeStep
2310,1,1 ZONE VAV,Air System Total Cooling Energy [J] !TimeStep
2311,1,5 ZONE VAV,Air System Total Cooling Energy [J] !TimeStep
2312,1,5 ZONE VAV 1,Air System Total Cooling Energy [J] !TimeStep
2313,1,ZONE EAST PERIMETER SPACE - STORY GROUND PSZ-AC,Air System Total Cooling Energy [J] !TimeStep
2314,1,ZONE NORTH PERIMETER SPACE - STORY GROUND PSZ-AC,Air System Total Cooling Energy [J] !TimeStep
2315,1,ZONE SOUTH PERIMETER SPACE - STORY GROUND PSZ-AC,Air System Total Cooling Energy [J] !TimeStep
2316,1,ZONE WEST PERIMETER SPACE - STORY GROUND PSZ-AC,Air System Total Cooling Energy [J] !TimeStep
9,1,Electricity:Facility [J] !TimeStep
1821,1,NaturalGas:Facility [J] !TimeStep
End of Data Dictionary
1,TUCSON INTERNATIONAL AP ANN CLG .4% CONDNS DB=>MWB 1 HVAC Sizing Pass 1,  32.13,-110.95,  -7.00, 777.00
2,1, 7,21, 0, 1, 0.00,15.00,SummerDesignDay
7,29.577
665,0.0
666,0.0
667,0.0
668,0.0
669,26.68251451569796
670,0.0
671,0.0
672,0.0
673,27.26414300247353
674,0.0
675,0.0
676,0.0
677,0.0
678,27.192633720190999
679,0.0
680,0.0
681,0.0
682,26.63830062174793
683,0.0
684,0.0
685,0.0
686,27.562867347388648
687,0.0
688,0.0
689,0.0
690,0.0
691,27.569557357016494
692,0.0
693,0.0
694,0.0
695,26.664171505188507
696,0.0
697,0.0
698,0.0
699,27.27476844460432
700,0.0
701,0.0
702,0.0
703,0.0
704,27.229643977540606
705,0.0
706,0.0
707,0.0
708,26.70967032080864
709,0.0
710,0.0
711,0.0
712,27.582793001771735
713,0.0
714,0.0
715,0.0
716,0.0
717,27.558336947674265
2310,10632742.442953414
2311,1135060906.617138
2312,64830882.4942463
2313,1708007.227445235
2314,428269.3055652586
2315,809327.3670795697
2316,2286610.626922675
9,2762150488.733509
1821,0.0
2,1, 7,21, 0, 1,15.00,30.00,SummerDesignDay
7,29.37
665,0.0
666,0.0
667,0.0
668,0.0
669,26.503146045553593
670,0.0
671,0.0
672,0.0
673,27.06798353795125
674,0.0
675,0.0
676,0.0
677,0.0
678,26.994026356211636
679,0.0
680,0.0
681,0.0
682,26.45964589877633
683,0.0
684,0.0
685,0.0
686,27.36304388568408
687,0.0
688,0.0
689,0.0
690,0.0
691,27.384983746886975
692,0.0
693,0.0
694,0.0
695,26.485352941280327
696,0.0
697,0.0
698,0.0
699,27.079925738862927
700,0.0
701,0.0
702,0.0
703,0.0
704,27.047886094350475
705,0.0
706,0.0
707,0.0
708,26.52964273326694
709,0.0
710,0.0
711,0.0
712,27.381150535207327
713,0.0
714,0.0
715,0.0
716,0.0
717,27.352833466924268
2310,10504739.652601803
2311,1130588042.9871054
2312,64477900.19596976
2313,1676016.1227710576
2314,400723.3001468287
2315,776678.9637988921
2316,2247544.05852496
9,2761669761.624293
1821,0.0
2,1, 7,21, 0, 1,30.00,45.00,SummerDesignDay
7,29.163
665,0.0
666,0.0
667,0.0
668,0.0
669,26.323653324605347
670,0.0
671,0.0
672,0.0
673,26.895694647233257
674,0.0
675,0.0
676,0.0
677,0.0
678,26.82158234258725
679,0.0
680,0.0
681,0.0
682,26.280813370086379
683,0.0
684,0.0
685,0.0
686,27.19170842755625
687,0.0
688,0.0
689,0.0
690,0.0
691,27.198207575032087
692,0.0
693,0.0
694,0.0
695,26.30636964177984
696,0.0
697,0.0
698,0.0
699,26.90909321333436
700,0.0
701,0.0
702,0.0
703,0.0
704,26.864425433795704
705,0.0
706,0.0
707,0.0
708,26.34951156695456
709,0.0
710,0.0
711,0.0
712,27.20782537823834
713,0.0
714,0.0
715,0.0
716,0.0
717,27.17881428899932
2310,10376737.020027418
2311,1125745013.7402988
2312,64135921.07088592
2313,1640353.8035944289
2314,365179.4171969161
2315,737186.2883474089
2316,2205270.7035891015
9,2761190096.7749369
1821,0.0
2,1, 7,21, 0, 1,45.00,60.00,SummerDesignDay
7,28.956000000000004
665,0.0
666,0.0
667,0.0
668,0.0
669,26.144040016141277
670,0.0
671,0.0
672,0.0
673,26.699092764262674
674,0.0
675,0.0
676,0.0
677,0.0
678,26.6223608322332
679,0.0
680,0.0
681,0.0
682,26.10182613501354
683,0.0
684,0.0
685,0.0
686,26.99143290238112
687,0.0
688,0.0
689,0.0
690,0.0
691,26.99252306767403
692,0.0
693,0.0
694,0.0
695,26.127236442728305
696,0.0
697,0.0
698,0.0
699,26.713710648732559
700,0.0
701,0.0
702,0.0
703,0.0
704,26.665565143856555
705,0.0
706,0.0
707,0.0
708,26.169277858957515
709,0.0
710,0.0
711,0.0
712,27.00579956982574
713,0.0
714,0.0
715,0.0
716,0.0
717,26.972814845382574
2310,10248734.550263497
2311,1120411547.6825772
2312,63771454.60549007
2313,1601812.5181202617
2314,323921.31719844185
2315,692529.2380904585
2316,2160471.5911743135
9,2760713024.055675
1821,0.0
2,1, 7,21, 0, 2, 0.00,15.00,SummerDesignDay
7,28.818
665,0.0
666,0.0
667,0.0
668,0.0
669,26.029893706614133
670,0.0
671,0.0
672,0.0
673,26.582686126339128
674,0.0
675,0.0
676,0.0
677,0.0
678,26.505270747101805
679,0.0
680,0.0
681,0.0
682,25.988174650913835
683,0.0
684,0.0
685,0.0
686,26.875228719271037
687,0.0
688,0.0
689,0.0
690,0.0
691,26.87568953359505
692,0.0
693,0.0
694,0.0
695,26.013500055627334
696,0.0
697,0.0
698,0.0
699,26.598632565307356
700,0.0
701,0.0
702,0.0
703,0.0
704,26.550321723929075
705,0.0
706,0.0
707,0.0
708,26.05465569752471
709,0.0
710,0.0
711,0.0
712,26.887710331241693
713,0.0
714,0.0
715,0.0
716,0.0
717,26.853439280522765
2310,10163404.213371166
2311,1118684832.5563968
2312,63549204.54945036
2313,1573103.9769753353
2314,296985.09101080088
2315,662536.74484793
2316,2125513.7334433377
9,2760403576.301619
1821,0.0
2,1, 7,21, 0, 2,15.00,30.00,SummerDesignDay
7,28.68
665,0.0
666,0.0
667,0.0
668,0.0
669,25.910225581094325
670,0.0
671,0.0
672,0.0
673,26.460111998065373
674,0.0
675,0.0
676,0.0
677,0.0
678,26.381749585482227
679,0.0
680,0.0
681,0.0
682,25.869055841893784
683,0.0
684,0.0
685,0.0
686,26.752357618233988
687,0.0
688,0.0
689,0.0
690,0.0
691,26.75193605527994
692,0.0
693,0.0
694,0.0
695,25.894271091004954
696,0.0
697,0.0
698,0.0
699,26.477283549165578
700,0.0
701,0.0
702,0.0
703,0.0
704,26.428518198457597
705,0.0
706,0.0
707,0.0
708,25.93440268467117
709,0.0
710,0.0
711,0.0
712,26.763084553250907
713,0.0
714,0.0
715,0.0
716,0.0
717,26.72724978471649
2310,10078069.374195414
2311,1116417898.8571332
2312,63321951.9047932
2313,1543791.2044207887
2314,268459.26567581036
2315,631246.3026450775
2316,2090075.1369931242
9,2760095108.343426
1821,0.0
2,1, 7,21, 0, 2,30.00,45.00,SummerDesignDay
7,28.542
665,0.0
666,0.0
667,0.0
668,0.0
669,25.79033377964049
670,0.0
671,0.0
672,0.0
673,26.336912922221758
674,0.0
675,0.0
676,0.0
677,0.0
678,26.257476808961088
679,0.0
680,0.0
681,0.0
682,25.749702516633307
683,0.0
684,0.0
685,0.0
686,26.628633038595127
687,0.0
688,0.0
689,0.0
690,0.0
691,26.62712799999025
692,0.0
693,0.0
694,0.0
695,25.774807134722268
696,0.0
697,0.0
698,0.0
699,26.355272502148638
700,0.0
701,0.0
702,0.0
703,0.0
704,26.30587491243773
705,0.0
706,0.0
707,0.0
708,25.813937200398529
709,0.0
710,0.0
711,0.0
712,26.637659157845748
713,0.0
714,0.0
715,0.0
716,0.0
717,26.60010512925004
2310,9992734.593314497
2311,1113657371.7620047
2312,63090179.34691762
2313,1513590.865370893
2314,238025.7274643365
2315,598252.2295803251
2316,2053912.898602197
9,2759108721.9044845
1821,0.0
2,1, 7,21, 0, 2,45.00,60.00,SummerDesignDay
7,28.404
665,0.0
666,0.0
667,0.0
668,0.0
669,25.670416848258925
670,0.0
671,0.0
672,0.0
673,26.21358738553363
674,0.0
675,0.0
676,0.0
677,0.0
678,26.133034506279217
679,0.0
680,0.0
681,0.0
682,25.630309951897517
683,0.0
684,0.0
685,0.0
686,26.504723801057936
687,0.0
688,0.0
689,0.0
690,0.0
691,26.50204293549359
692,0.0
693,0.0
694,0.0
695,25.65530659734327
696,0.0
697,0.0
698,0.0
699,26.233109544483399
700,0.0
701,0.0
702,0.0
703,0.0
704,26.182990626097025
705,0.0
706,0.0
707,0.0
708,25.6934623125901
709,0.0
710,0.0
711,0.0
712,26.512087869138214
713,0.0
714,0.0
715,0.0
716,0.0
717,26.47277234712203
2310,9907399.888434712
2311,1110447491.460286
2312,62853885.63330329
2313,1482678.1448739523
2314,206032.9160541985
2315,563856.0587119241
2316,2017196.7089048832
9,2758790256.467123
1821,0.0
2,1, 7,21, 0, 3, 0.00,15.00,SummerDesignDay
7,28.3005
665,0.0
666,0.0
667,0.0
668,0.0
669,25.579375455954279
670,0.0
671,0.0
672,0.0
673,26.118266809137084
674,0.0
675,0.0
676,0.0
677,0.0
678,26.036390232091664
679,0.0
680,0.0
681,0.0
682,25.53980013848218
683,0.0
684,0.0
685,0.0
686,26.408472818819008
687,0.0
688,0.0
689,0.0
690,0.0
691,26.40431004951165
692,0.0
693,0.0
694,0.0
695,25.56467799307677
696,0.0
697,0.0
698,0.0
699,26.138929286143254
700,0.0
701,0.0
702,0.0
703,0.0
704,26.087837912391934
705,0.0
706,0.0
707,0.0
708,25.601868693146686
709,0.0
710,0.0
711,0.0
712,26.414199655749486
713,0.0
714,0.0
715,0.0
716,0.0
717,26.372869753226497
2310,9843400.495456184
2311,1108916463.1464189
2312,62687708.22134478
2313,1457524.5460955222
2314,182586.44772718306
2315,538083.720371827
2316,1986237.2955718053
9,2758552060.4189178
1821,0.0
2,1, 7,21, 0, 3,15.00,30.00,SummerDesignDay
7,28.197
665,0.0
666,0.0
667,0.0
668,0.0
669,25.489327911956367
670,0.0
671,0.0
672,0.0
673,26.025369095383554
674,0.0
675,0.0
676,0.0
677,0.0
678,25.942495639990626
679,0.0
680,0.0
681,0.0
682,25.45023881699376
683,0.0
684,0.0
685,0.0
686,26.31525723811228
687,0.0
688,0.0
689,0.0
690,0.0
691,26.31001703654124
692,0.0
693,0.0
694,0.0
695,25.475025603692587
696,0.0
697,0.0
698,0.0
699,26.04715669229222
700,0.0
701,0.0
702,0.0
703,0.0
704,25.995381657989755
705,0.0
706,0.0
707,0.0
708,25.51129665286419
709,0.0
710,0.0
711,0.0
712,26.319380812340684
713,0.0
714,0.0
715,0.0
716,0.0
717,26.276482552466008
2310,9779399.538545302
2311,1107026169.815033
2312,62519420.03650765
2313,1432047.1048975914
2314,158244.76895461256
2315,511561.9621542284
2316,1955098.4524290749
9,2758314972.8502905
1821,0.0
2,1, 7,21, 0, 3,30.00,45.00,SummerDesignDay
7,28.093500000000004
665,0.0
666,0.0
667,0.0
668,0.0
669,25.399313827314019
670,0.0
671,0.0
672,0.0
673,25.93267211791664
674,0.0
675,0.0
676,0.0
677,0.0
678,25.848861139059978
679,0.0
680,0.0
681,0.0
682,25.360699318275694
683,0.0
684,0.0
685,0.0
686,26.222349785750397
687,0.0
688,0.0
689,0.0
690,0.0
691,26.216109340290644
692,0.0
693,0.0
694,0.0
695,25.38539774731248
696,0.0
697,0.0
698,0.0
699,25.95556361640024
700,0.0
701,0.0
702,0.0
703,0.0
704,25.903131956666699
705,0.0
706,0.0
707,0.0
708,25.420771909903125
709,0.0
710,0.0
711,0.0
712,26.224904164426108
713,0.0
714,0.0
715,0.0
716,0.0
717,26.18055253912803
2310,9715398.623143604
2311,1104805039.0921715
2312,62349156.652219589
2313,1406325.5790991283
2314,133148.10862903344
2315,484378.5891716007
2316,1923884.3421230207
9,2758079098.336855
1821,0.0
2,1, 7,21, 0, 3,45.00,60.00,SummerDesignDay
7,27.990000000000003
665,0.0
666,0.0
667,0.0
668,0.0
669,25.309303829896977
670,0.0
671,0.0
672,0.0
673,25.839962115754817
674,0.0
675,0.0
676,0.0
677,0.0
678,25.75521733301929
679,0.0
680,0.0
681,0.0
682,25.27115187457099
683,0.0
684,0.0
685,0.0
686,26.129427141220164
687,0.0
688,0.0
689,0.0
690,0.0
691,26.12216628143733
692,0.0
693,0.0
694,0.0
695,25.295763696245105
696,0.0
697,0.0
698,0.0
699,25.863935417117035
700,0.0
701,0.0
702,0.0
703,0.0
704,25.810811574526214
705,0.0
706,0.0
707,0.0
708,25.33026676915665
709,0.0
710,0.0
711,0.0
712,26.130447942806087
713,0.0
714,0.0
715,0.0
716,0.0
717,26.084673464492086
2310,9651397.749480714
2311,1102272392.3488277
2312,62175955.8324154
2313,1380349.48416827
2314,107369.45275559968
2315,456579.72244723167
2316,1892550.9898620279
9,2757844440.570269
1821,0.0
2,1, 7,21, 0, 4, 0.00,15.00,SummerDesignDay
7,27.8865
665,0.0
666,0.0
667,0.0
668,0.0
669,25.219292610723927
670,0.0
671,0.0
672,0.0
673,25.74721228267242
674,0.0
675,0.0
676,0.0
677,0.0
678,25.661519965212848
679,0.0
680,0.0
681,0.0
682,25.181595768060448
683,0.0
684,0.0
685,0.0
686,26.036455463983545
687,0.0
688,0.0
689,0.0
690,0.0
691,26.028146199225036
692,0.0
693,0.0
694,0.0
695,25.206122234822489
696,0.0
697,0.0
698,0.0
699,25.772253366996666
700,0.0
701,0.0
702,0.0
703,0.0
704,25.71840310960249
705,0.0
706,0.0
707,0.0
708,25.239770677420837
709,0.0
710,0.0
711,0.0
712,26.03596578557324
713,0.0
714,0.0
715,0.0
716,0.0
717,25.98876727799552
2310,9587396.91129218
2311,1099452461.8981856
2312,62000009.073185827
2313,1354143.7401954458
2314,0.0
2315,428216.26818139708
2316,1861120.0941949143
9,2757588640.828266
1821,0.0
2,1, 7,21, 0, 4,15.00,30.00,SummerDesignDay
7,27.783
665,0.0
666,0.0
667,0.0
668,0.0
669,25.12928349657716
670,0.0
671,0.0
672,0.0
673,25.654423754153869
674,0.0
675,0.0
676,0.0
677,0.0
678,25.56776841838871
679,0.0
680,0.0
681,0.0
682,25.09236274440042
683,0.0
684,0.0
685,0.0
686,25.94342987936443
687,0.0
688,0.0
689,0.0
690,0.0
691,25.934037844976957
692,0.0
693,0.0
694,0.0
695,25.116475353186048
696,0.0
697,0.0
698,0.0
699,25.68051517007848
700,0.0
701,0.0
702,0.0
703,0.0
704,25.62589991014147
705,0.0
706,0.0
707,0.0
708,25.149288365664007
709,0.0
710,0.0
711,0.0
712,25.941456538705724
713,0.0
714,0.0
715,0.0
716,0.0
717,25.892831367760779
2310,9523396.113151368
2311,1096370279.352991
2312,61821874.778722617
2313,1327749.2246906888
2314,108081.82008772154
2315,399336.48306928438
2316,1829641.5256751269
9,2757393836.5652248
1821,0.0
2,1, 7,21, 0, 4,30.00,45.00,SummerDesignDay
7,27.679500000000006
665,0.0
666,0.0
667,0.0
668,0.0
669,25.039277828304195
670,0.0
671,0.0
672,0.0
673,25.561600840728944
674,0.0
675,0.0
676,0.0
677,0.0
678,25.47396564894376
679,0.0
680,0.0
681,0.0
682,25.002690386443875
683,0.0
684,0.0
685,0.0
686,25.85035482837651
687,0.0
688,0.0
689,0.0
690,0.0
691,25.83984547975075
692,0.0
693,0.0
694,0.0
695,25.026824155428416
696,0.0
697,0.0
698,0.0
699,25.588725925666155
700,0.0
701,0.0
702,0.0
703,0.0
704,25.533307618214736
705,0.0
706,0.0
707,0.0
708,25.058820755142507
709,0.0
710,0.0
711,0.0
712,25.84692315707889
713,0.0
714,0.0
715,0.0
716,0.0
717,25.79686680724842
2310,9459395.352761543
2311,1093047875.9337698
2312,61641751.35488602
2313,1301186.379514825
2314,0.0
2315,369975.82127218376
2316,1798139.3648707495
9,2757140830.113607
1821,0.0
2,1, 7,21, 0, 4,45.00,60.00,SummerDesignDay
7,27.576
665,0.0
666,0.0
667,0.0
668,0.0
669,24.949276207947095
670,0.0
671,0.0
672,0.0
673,25.468746463413937
674,0.0
675,0.0
676,0.0
677,0.0
678,25.38011445884871
679,0.0
680,0.0
681,0.0
682,24.912985564975828
683,0.0
684,0.0
685,0.0
686,25.757234121132343
687,0.0
688,0.0
689,0.0
690,0.0
691,25.74557360118149
692,0.0
693,0.0
694,0.0
695,24.93716956334208
696,0.0
697,0.0
698,0.0
699,25.49688963083935
700,0.0
701,0.0
702,0.0
703,0.0
704,25.440631138486198
705,0.0
706,0.0
707,0.0
708,24.968368026290194
709,0.0
710,0.0
711,0.0
712,25.752367836601708
713,0.0
714,0.0
715,0.0
716,0.0
717,25.70087552068037
2310,9395394.626841173
2311,1089504471.262048
2312,61459628.90363557
2313,1274457.6814302784
2314,0.0
2315,340163.85999990577
2316,1766622.163530998
9,2756919091.5079877
1821,0.0
2,1, 7,21, 0, 5, 0.00,15.00,SummerDesignDay
7,27.507
665,0.0
666,0.0
667,0.0
668,0.0
669,24.888115011958804
670,0.0
671,0.0
672,0.0
673,25.40391790830256
674,0.0
675,0.0
676,0.0
677,0.0
678,25.314101856477465
679,0.0
680,0.0
681,0.0
682,24.852259392462885
683,0.0
684,0.0
685,0.0
686,25.69181054839737
687,0.0
688,0.0
689,0.0
690,0.0
691,25.678730513931556
692,0.0
693,0.0
694,0.0
695,24.876354049261239
696,0.0
697,0.0
698,0.0
699,25.433065429741306
700,0.0
701,0.0
702,0.0
703,0.0
704,25.375754850281454
705,0.0
706,0.0
707,0.0
708,24.906760107952324
709,0.0
710,0.0
711,0.0
712,25.685521361058478
713,0.0
714,0.0
715,0.0
716,0.0
717,25.6323593853881
2310,9352728.619371744
2311,1087845187.2260688
2312,61349899.1560643
2313,1253973.3364202504
2314,0.0
2315,319776.6959332702
2316,1741394.794847587
9,2756770075.752334
1821,0.0
2,1, 7,21, 0, 5,15.00,30.00,SummerDesignDay
7,27.438000000000004
665,0.0
666,0.0
667,0.0
668,0.0
669,24.827976639004647
670,0.0
671,0.0
672,0.0
673,25.341582542984385
674,0.0
675,0.0
676,0.0
677,0.0
678,25.250923688734646
679,0.0
680,0.0
681,0.0
682,24.792428894957824
683,0.0
684,0.0
685,0.0
686,25.629498212548925
687,0.0
688,0.0
689,0.0
690,0.0
691,25.6154287182473
692,0.0
693,0.0
694,0.0
695,24.816549743964516
696,0.0
697,0.0
698,0.0
699,25.37173062705483
700,0.0
701,0.0
702,0.0
703,0.0
704,25.313686360991939
705,0.0
706,0.0
707,0.0
708,24.846190668733585
709,0.0
710,0.0
711,0.0
712,25.621804484824794
713,0.0
714,0.0
715,0.0
716,0.0
717,25.567428280356127
2310,9310061.50290698
2311,1086011889.2012294
2312,61240008.26703618
2313,1233491.5421768418
2314,0.0
2315,299210.85663217419
2316,1716326.0087176916
9,2756621777.4450209
1821,0.0
2,1, 7,21, 0, 5,30.00,45.00,SummerDesignDay
7,27.369
665,0.0
666,0.0
667,0.0
668,0.0
669,24.767881255824478
670,0.0
671,0.0
672,0.0
673,25.279489632717515
674,0.0
675,0.0
676,0.0
677,0.0
678,25.188065539236506
679,0.0
680,0.0
681,0.0
682,24.73252021388936
683,0.0
684,0.0
685,0.0
686,25.56754304987396
687,0.0
688,0.0
689,0.0
690,0.0
691,25.55258926300371
692,0.0
693,0.0
694,0.0
695,24.756781872442049
696,0.0
697,0.0
698,0.0
699,25.310625955583534
700,0.0
701,0.0
702,0.0
703,0.0
704,25.251906527745349
705,0.0
706,0.0
707,0.0
708,24.785673589290526
709,0.0
710,0.0
711,0.0
712,25.558465496847476
713,0.0
714,0.0
715,0.0
716,0.0
717,25.50300276376322
2310,9267394.402534193
2311,1084016234.8141928
2312,61129844.87296598
2313,1212990.8153738548
2314,0.0
2315,278429.807137444
2316,1691413.5641154345
9,2756474173.7973124
1821,0.0
2,1, 7,21, 0, 5,45.00,60.00,SummerDesignDay
7,27.3
665,0.0
666,0.0
667,0.0
668,0.0
669,24.707791289383296
670,0.0
671,0.0
672,0.0
673,25.21741577464246
674,0.0
675,0.0
676,0.0
677,0.0
678,25.125245118932413
679,0.0
680,0.0
681,0.0
682,24.67255021287656
683,0.0
684,0.0
685,0.0
686,25.505615279529139
687,0.0
688,0.0
689,0.0
690,0.0
691,25.489790936808164
692,0.0
693,0.0
694,0.0
695,24.69701343931149
696,0.0
697,0.0
698,0.0
699,25.24952988222651
700,0.0
701,0.0
702,0.0
703,0.0
704,25.190136523688467
705,0.0
706,0.0
707,0.0
708,24.725170767648366
709,0.0
710,0.0
711,0.0
712,25.495171765270358
713,0.0
714,0.0
715,0.0
716,0.0
717,25.438658287525983
2310,9224727.320660608
2311,1081865037.7489358
2312,61018822.04762008
2313,1192458.851613481
2314,0.0
2315,257423.00084367055
2316,1666671.9355406124
9,2756327257.517407
1821,0.0
2,1, 7,21, 0, 6, 0.00,15.00,SummerDesignDay
7,27.369
665,0.0
666,0.0
667,0.0
668,0.0
669,24.762965262239847
670,0.0
671,0.0
672,0.0
673,25.267504677251965
674,0.0
675,0.0
676,0.0
677,0.0
678,25.16234945556164
679,0.0
680,0.0
681,0.0
682,24.72787743805634
683,0.0
684,0.0
685,0.0
686,25.554591306270369
687,0.0
688,0.0
689,0.0
690,0.0
691,25.53695620637825
692,0.0
693,0.0
694,0.0
695,24.75252073415595
696,0.0
697,0.0
698,0.0
699,25.300586391412709
700,0.0
701,0.0
702,0.0
703,0.0
704,25.239813294577517
705,0.0
706,0.0
707,0.0
708,24.77992009532818
709,0.0
710,0.0
711,0.0
712,25.530937770064157
713,0.0
714,0.0
715,0.0
716,0.0
717,25.472129598371397
2310,9267379.861856714
2311,1456518494.6712476
2312,107251407.8937119
2313,4033464.0041715127
2314,4277372.653118676
2315,4800137.5943286209
2316,4266635.147289328
9,2833193186.1939995
1821,666165.0475607572
2,1, 7,21, 0, 6,15.00,30.00,SummerDesignDay
7,27.438000000000004
665,0.0
666,0.0
667,0.0
668,0.0
669,24.803640167694426
670,0.0
671,0.0
672,0.0
673,25.327470386964025
674,0.0
675,0.0
676,0.0
677,0.0
678,25.230728857452278
679,0.0
680,0.0
681,0.0
682,24.76827845120829
683,0.0
684,0.0
685,0.0
686,25.599097513178778
687,0.0
688,0.0
689,0.0
690,0.0
691,25.583543497352197
692,0.0
693,0.0
694,0.0
695,24.792187216711456
696,0.0
697,0.0
698,0.0
699,25.346594754231718
700,0.0
701,0.0
702,0.0
703,0.0
704,25.287875021891695
705,0.0
706,0.0
707,0.0
708,24.821259436145284
709,0.0
710,0.0
711,0.0
712,25.59960986056916
713,0.0
714,0.0
715,0.0
716,0.0
717,25.540914878824198
2310,9310046.99879961
2311,1178964216.0523329
2312,69226346.9951492
2313,1630884.8044533653
2314,505598.93272810356
2315,894362.636769492
2316,2089127.4732247142
9,2764406906.901461
1821,0.0
2,1, 7,21, 0, 6,30.00,45.00,SummerDesignDay
7,27.507
665,0.032531804276346529
666,0.9179499075405831
667,0.9179499075405831
668,1441.7654417743596
669,25.65541836428571
670,0.9179499075405831
671,0.9179499075405831
672,1441.7654417743596
673,25.99646172406102
674,0.9179499075405831
675,0.032531804276346529
676,0.9179499075405831
677,1441.7654417743589
678,25.85445486795078
679,0.39536015094690615
680,0.39536015094690615
681,1392.0291115958235
682,25.332791329129124
683,0.39536015094690615
684,0.39536015094690615
685,1392.0291115958235
686,25.98808957707689
687,0.39536015094690615
688,0.032531804276346529
689,0.39536015094690615
690,1392.0291115958203
691,25.930782118833635
692,-0.39536015094690615
693,-0.39536015094690615
694,818.0762226624253
695,25.145650509117844
696,-0.39536015094690615
697,-0.39536015094690615
698,818.0762226624254
699,25.63138388271443
700,-0.39536015094690615
701,0.032531804276346529
702,-0.39536015094690615
703,818.0762226624233
704,25.554728111056308
705,-0.9179499075405831
706,-0.9179499075405831
707,545.3817755846343
708,25.175399974096423
709,-0.9179499075405831
710,-0.9179499075405831
711,545.3817755846343
712,25.861759127532424
713,-0.9179499075405831
714,0.032531804276346529
715,-0.9179499075405831
716,545.3817755846338
717,25.780599543262043
2310,9352714.190784922
2311,1412551251.724026
2312,94550959.95027778
2313,2850341.0654084419
2314,2801977.432515859
2315,3000359.6308820114
2316,3197911.21163268
9,2797509781.2420179
1821,0.0
2,1, 7,21, 0, 6,45.00,60.00,SummerDesignDay
7,27.576
665,0.0837048787460643
666,0.9279349535056571
667,0.9279349535056571
668,8015.153143692233
669,29.35898756591581
670,0.9279349535056571
671,0.9279349535056571
672,8015.153143692232
673,28.879928579251215
674,0.9279349535056571
675,0.0837048787460643
676,0.9279349535056571
677,8015.153143692231
678,28.54329733479267
679,0.3632219918129415
680,0.3632219918129415
681,5844.71827009377
682,27.03744215269569
683,0.3632219918129415
684,0.3632219918129415
685,5844.718270093771
686,27.142731399088576
687,0.3632219918129415
688,0.0837048787460643
689,0.3632219918129415
690,5844.718270093755
691,26.959627328669286
692,-0.3632219918129415
693,-0.3632219918129415
694,1961.842301715868
695,25.621835603622175
696,-0.3632219918129415
697,-0.3632219918129415
698,1961.8423017158683
699,26.0133158947458
700,-0.3632219918129415
701,0.0837048787460643
702,-0.3632219918129415
703,1961.8423017158635
704,25.912934450924014
705,-0.9279349535056571
706,-0.9279349535056571
707,1307.889279927187
708,25.650909922320353
709,-0.9279349535056571
710,-0.9279349535056571
711,1307.889279927187
712,26.200819155131627
713,-0.9279349535056571
714,0.0837048787460643
715,-0.9279349535056571
716,1307.889279927186
717,26.089625139655256
2310,9395381.393615453
2311,1366537982.2560755
2312,87544888.65979186
2313,2933514.118066712
2314,2316862.434982288
2315,2499305.064564835
2316,2959086.7345974415
9,2723713316.52987
1821,0.0
2,1, 7,21, 0, 7, 0.00,15.00,SummerDesignDay
7,27.817500000000004
665,0.1353214216793748
666,0.9339464395406542
667,0.9339464395406542
668,15828.91121991423
669,33.865795762126769
670,0.9339464395406542
671,0.9339464395406542
672,15828.911219914226
673,32.417081957284498
674,0.9339464395406542
675,0.1353214216793748
676,0.9339464395406542
677,15828.911219914226
678,31.858512584154654
679,0.3308053217588978
680,0.3308053217588978
681,10331.940540979604
682,28.916152720225115
683,0.3308053217588978
684,0.3308053217588978
685,10331.940540979605
686,28.462721560418346
687,0.3308053217588978
688,0.1353214216793748
689,0.3308053217588978
690,10331.940540979576
691,28.155327807435357
692,-0.3308053217588978
693,-0.3308053217588978
694,3280.131347093423
695,26.313421232363909
696,-0.3308053217588978
697,-0.3308053217588978
698,3280.1313470934235
699,26.596811749132827
700,-0.3308053217588978
701,0.1353214216793748
702,-0.3308053217588978
703,3280.1313470934148
704,26.469936963619717
705,-0.9339464395406542
706,-0.9339464395406542
707,2186.7451385278025
708,26.34193940894886
709,-0.9339464395406542
710,-0.9339464395406542
711,2186.7451385278025
712,26.7351429027118
713,-0.9339464395406542
714,0.1353214216793748
715,-0.9339464395406542
716,2186.7451385278006
717,26.5889605105138
2310,16246429.348811247
2311,2462729558.4607717
2312,141820231.58305914
2313,6088110.2485494599
2314,5425133.4016201519
2315,5491015.679200942
2316,5293358.583976448
9,3032334390.0955255
1821,27509328.873696865
2,1, 7,21, 0, 7,15.00,30.00,SummerDesignDay
7,28.058999999999999
665,0.18716040311512137
666,0.9359586235394722
667,0.9359586235394722
668,22122.431067820155
669,37.17835482202287
670,0.9359586235394722
671,0.9359586235394722
672,22122.43106782015
673,35.182942545840209
674,0.9359586235394722
675,0.18716040311512137
676,0.9359586235394722
677,22122.43106782015
678,34.488173467990467
679,0.29824895394264447
680,0.29824895394264447
681,13200.187301305003
682,30.162227755655239
683,0.29824895394264447
684,0.29824895394264447
685,13200.187301305004
686,29.376325960748888
687,0.29824895394264447
688,0.18716040311512137