Program Version,EnergyPlus, Version 9.4.0-998c4b761e, YMD=2022.04.20 08:19
1,5,Environment Title[],Latitude[deg],Longitude[deg],Time Zone[],Elevation[m]
2,8,Day of Simulation[],Month[],Day of Month[],DST Indicator[1=yes 0=no],Hour[],StartMinute[],EndMinute[],DayType
3,5,Cumulative Day of Simulation[],Month[],Day of Month[],DST Indicator[1=yes 0=no],DayType  ! When Daily Report Variables Requested
4,2,Cumulative Days of Simulation[],Month[]  ! When Monthly Report Variables Requested
5,1,Cumulative Days of Simulation[] ! When Run Period Report Variables Requested
6,1,Calendar Year of Simulation[] ! When Annual Report Variables Requested
8,1,Electricity:Facility [J] !TimeStep
1676,1,NaturalGas:Facility [J] !TimeStep
End of Data Dictionary
1,TUCSON INTERNATIONAL AP ANN CLG .4% CONDNS DB=>MWB 1 HVAC Sizing Pass 1,  32.13,-110.95,  -7.00, 777.00
2,1, 7,21, 0, 1, 0.00,15.00,SummerDesignDay
8,1945734159.857142
1676,0.0
2,1, 7,21, 0, 1,15.00,30.00,SummerDesignDay
8,1945734159.857142
1676,0.0
2,1, 7,21, 0, 1,30.00,45.00,SummerDesignDay
8,1945734159.857142
1676,0.0
2,1, 7,21, 0, 1,45.00,60.00,SummerDesignDay
8,1945734159.857142
1676,0.0
2,1, 7,21, 0, 2, 0.00,15.00,SummerDesignDay
8,1945734159.857142
1676,0.0
2,1, 7,21, 0, 2,15.00,30.00,SummerDesignDay
8,1945734159.857142
1676,0.0
2,1, 7,21, 0, 2,30.00,45.00,SummerDesignDay
8,1945734159.857142
1676,0.0
2,1, 7,21, 0, 2,45.00,60.00,SummerDesignDay
8,1945734159.857142
1676,0.0
2,1, 7,21, 0, 3, 0.00,15.00,SummerDesignDay
8,1945734159.857142
1676,0.0
2,1, 7,21, 0, 3,15.00,30.00,SummerDesignDay
8,1945734159.857142
1676,0.0
2,1, 7,21, 0, 3,30.00,45.00,SummerDesignDay
8,1945734159.857142
1676,0.0
2,1, 7,21, 0, 3,45.00,60.00,SummerDesignDay
8,1945734159.857142
1676,0.0
2,1, 7,21, 0, 4, 0.00,15.00,SummerDesignDay
8,1945734159.857142
1676,0.0
2,1, 7,21, 0, 4,15.00,30.00,SummerDesignDay
8,1945734159.857142
1676,0.0
2,1, 7,21, 0, 4,30.00,45.00,SummerDesignDay
8,1945734159.857142
1676,0.0
2,1, 7,21, 0, 4,45.00,60.00,SummerDesignDay
8,1945734159.857142
1676,0.0
2,1, 7,21, 0, 5, 0.00,15.00,SummerDesignDay
8,1945734159.857142
1676,0.0
2,1, 7,21, 0, 5,15.00,30.00,SummerDesignDay
8,1945734159.857142
1676,0.0
2,1, 7,21, 0, 5,30.00,45.00,SummerDesignDay
8,1945734159.857142
1676,0.0
2,1, 7,21, 0, 5,45.00,60.00,SummerDesignDay
8,1945734159.857142
1676,0.0
2,1, 7,21, 0, 6, 0.00,15.00,SummerDesignDay
8,1945734159.857142
1676,0.0
2,1, 7,21, 0, 6,15.00,30.00,SummerDesignDay
8,1945734159.857142
1676,0.0
2,1, 7,21, 0, 6,30.00,45.00,SummerDesignDay
8,1945734159.857142
1676,0.0
2,1, 7,21, 0, 6,45.00,60.00,SummerDesignDay
8,1945734159.857142
1676,0.0
2,1, 7,21, 0, 7, 0.00,15.00,SummerDesignDay
8,1945849121.1117209
1676,26760514.894270056
2,1, 7,21, 0, 7,15.00,30.00,SummerDesignDay
8,1945849121.1117209
1676,0.0
2,1, 7,21, 0, 7,30.00,45.00,SummerDesignDay
8,1945849121.1117209
1676,24964746.385341329
2,1, 7,21, 0, 7,45.00,60.00,SummerDesignDay
8,1945849121.1117209
1676,24964616.69852882
2,1, 7,21, 0, 8, 0.00,15.00,SummerDesignDay
8,1945849121.1117209
1676,27286128.386172259
2,1, 7,21, 0, 8,15.00,30.00,SummerDesignDay
8,1945849121.1117209
1676,27258041.718338696
2,1, 7,21, 0, 8,30.00,45.00,SummerDesignDay
8,1945849121.1117209
1676,27245285.586550647
2,1, 7,21, 0, 8,45.00,60.00,SummerDesignDay
8,1945849121.1117209
1676,27212871.226710388
2,1, 7,21, 0, 9, 0.00,15.00,SummerDesignDay
8,1945849121.1117209
1676,62248575.63679477
2,1, 7,21, 0, 9,15.00,30.00,SummerDesignDay
8,1945849121.1117209
1676,36842001.179518427
2,1, 7,21, 0, 9,30.00,45.00,SummerDesignDay
8,1945849121.1117209
1676,56871361.45438571
2,1, 7,21, 0, 9,45.00,60.00,SummerDesignDay
8,1945849121.1117209
1676,62456020.14168776
2,1, 7,21, 0,10, 0.00,15.00,SummerDesignDay
8,1945849121.1117209
1676,47914123.76410595
2,1, 7,21, 0,10,15.00,30.00,SummerDesignDay
8,1945849121.1117209
1676,48455846.54112559
2,1, 7,21, 0,10,30.00,45.00,SummerDesignDay
8,1945849121.1117209
1676,64203494.986778337
2,1, 7,21, 0,10,45.00,60.00,SummerDesignDay
8,1945849121.1117209
1676,64274049.73306471
2,1, 7,21, 0,11, 0.00,15.00,SummerDesignDay
8,1945849121.1117209
1676,49822652.011117998
2,1, 7,21, 0,11,15.00,30.00,SummerDesignDay
8,1945849121.1117209
1676,47503171.85593608
2,1, 7,21, 0,11,30.00,45.00,SummerDesignDay
8,1945849121.1117209
1676,64859618.71168625
2,1, 7,21, 0,11,45.00,60.00,SummerDesignDay
8,1945849121.1117209
1676,64884668.99515462
2,1, 7,21, 0,12, 0.00,15.00,SummerDesignDay
8,1945849121.1117209
1676,70226222.30899641
2,1, 7,21, 0,12,15.00,30.00,SummerDesignDay
8,1945849121.1117209
1676,70473132.91096741
2,1, 7,21, 0,12,30.00,45.00,SummerDesignDay
8,1945849121.1117209
1676,65936318.59130855
2,1, 7,21, 0,12,45.00,60.00,SummerDesignDay
8,1945849121.1117209
1676,64073990.35961571
2,1, 7,21, 0,13, 0.00,15.00,SummerDesignDay
8,1945849121.1117209
1676,83398022.55083023
2,1, 7,21, 0,13,15.00,30.00,SummerDesignDay
8,1945849121.1117209
1676,85178881.76664469
2,1, 7,21, 0,13,30.00,45.00,SummerDesignDay
8,1945849121.1117209
1676,80392020.82287507
2,1, 7,21, 0,13,45.00,60.00,SummerDesignDay
8,1945849121.1117209
1676,78955274.32150334
2,1, 7,21, 0,14, 0.00,15.00,SummerDesignDay
8,1945849121.1117209
1676,76356020.14511207
2,1, 7,21, 0,14,15.00,30.00,SummerDesignDay
8,1945849121.1117209
1676,76242633.10714796
2,1, 7,21, 0,14,30.00,45.00,SummerDesignDay
8,1945849121.1117209
1676,76221906.43872388
2,1, 7,21, 0,14,45.00,60.00,SummerDesignDay
8,1945849121.1117209
1676,76229604.29728693
2,1, 7,21, 0,15, 0.00,15.00,SummerDesignDay
8,1945849121.1117209
1676,62185889.982645798
2,1, 7,21, 0,15,15.00,30.00,SummerDesignDay
8,1945849121.1117209
1676,30929865.79125353
2,1, 7,21, 0,15,30.00,45.00,SummerDesignDay
8,1945849121.1117209
1676,61895961.047954637
2,1, 7,21, 0,15,45.00,60.00,SummerDesignDay
8,1945849121.1117209
1676,54280262.74595542
2,1, 7,21, 0,16, 0.00,15.00,SummerDesignDay
8,1945849121.1117209
1676,38194417.41060371
2,1, 7,21, 0,16,15.00,30.00,SummerDesignDay
8,1945849121.1117209
1676,61255732.845067467
2,1, 7,21, 0,16,30.00,45.00,SummerDesignDay
8,1945849121.1117209
1676,35198476.42345594
2,1, 7,21, 0,16,45.00,60.00,SummerDesignDay
8,1945849121.1117209
1676,56624327.499166447
2,1, 7,21, 0,17, 0.00,15.00,SummerDesignDay
8,1945849121.1117209
1676,67691558.83043687
2,1, 7,21, 0,17,15.00,30.00,SummerDesignDay
8,1945849121.1117209
1676,68311268.07321228
2,1, 7,21, 0,17,30.00,45.00,SummerDesignDay
8,1945849121.1117209
1676,66554306.99373255
2,1, 7,21, 0,17,45.00,60.00,SummerDesignDay
8,1945849121.1117209
1676,56185468.33865615
2,1, 7,21, 0,18, 0.00,15.00,SummerDesignDay
8,1945849121.1117209
1676,40731428.41857333
2,1, 7,21, 0,18,15.00,30.00,SummerDesignDay
8,1945849121.1117209
1676,28799382.036415187
2,1, 7,21, 0,18,30.00,45.00,SummerDesignDay
8,1945849121.1117209
1676,57435140.05337541
2,1, 7,21, 0,18,45.00,60.00,SummerDesignDay
8,1945849121.1117209
1676,28707748.549820689
2,1, 7,21, 0,19, 0.00,15.00,SummerDesignDay
8,1945849121.1117209
1676,27631110.557141868
2,1, 7,21, 0,19,15.00,30.00,SummerDesignDay
8,1945849121.1117209
1676,50508209.64416842
2,1, 7,21, 0,19,30.00,45.00,SummerDesignDay
8,1945849121.1117209
1676,32579983.080732068
2,1, 7,21, 0,19,45.00,60.00,SummerDesignDay
8,1945849121.1117209
1676,27741606.700739929
2,1, 7,21, 0,20, 0.00,15.00,SummerDesignDay
8,1945849121.1117209
1676,26466371.418562764
2,1, 7,21, 0,20,15.00,30.00,SummerDesignDay
8,1945849121.1117209
1676,26473653.196287399
2,1, 7,21, 0,20,30.00,45.00,SummerDesignDay
8,1945849121.1117209
1676,26376895.43540026
2,1, 7,21, 0,20,45.00,60.00,SummerDesignDay
8,1945849121.1117209
1676,26413008.73310747
2,1, 7,21, 0,21, 0.00,15.00,SummerDesignDay
8,1945849121.1117209
1676,26693382.63215141
2,1, 7,21, 0,21,15.00,30.00,SummerDesignDay
8,1945849121.1117209
1676,26752997.6584259
2,1, 7,21, 0,21,30.00,45.00,SummerDesignDay
8,1945849121.1117209
1676,26757875.949514085
2,1, 7,21, 0,21,45.00,60.00,SummerDesignDay
8,1945849121.1117209
1676,26607705.272042566
2,1, 7,21, 0,22, 0.00,15.00,SummerDesignDay
8,1945849121.1117209
1676,24907384.619333984
2,1, 7,21, 0,22,15.00,30.00,SummerDesignDay
8,1945849121.1117209
1676,0.0
2,1, 7,21, 0,22,30.00,45.00,SummerDesignDay
8,1945849121.1117209
1676,24970690.789091644
2,1, 7,21, 0,22,45.00,60.00,SummerDesignDay
8,1945849121.1117209
1676,25021177.93585081
2,1, 7,21, 0,23, 0.00,15.00,SummerDesignDay
8,1945849121.1117209
1676,0.0
2,1, 7,21, 0,23,15.00,30.00,SummerDesignDay
8,1945849121.1117209
1676,24555275.081643769
2,1, 7,21, 0,23,30.00,45.00,SummerDesignDay
8,1945849121.1117209
1676,0.0
2,1, 7,21, 0,23,45.00,60.00,SummerDesignDay
8,1945849121.1117209
1676,19280742.982146287
2,1, 7,21, 0,24, 0.00,15.00,SummerDesignDay
8,1945849121.1117209
1676,5208265.693133557
2,1, 7,21, 0,24,15.00,30.00,SummerDesignDay
8,1945849121.1117209
1676,10522388.858372482
2,1, 7,21, 0,24,30.00,45.00,SummerDesignDay
8,1945849121.1117209
1676,13820429.75899564
2,1, 7,21, 0,24,45.00,60.00,SummerDesignDay
8,1945849121.1117209
1676,2717074.977105895
1,TUCSON INTERNATIONAL AP ANN CLG .4% CONDNS WB=>MDB 1 HVAC Sizing Pass 1,  32.13,-110.95,  -7.00, 777.00
2,1, 7,21, 0, 1, 0.00,15.00,SummerDesignDay
8,1945734159.857142
1676,0.0
2,1, 7,21, 0, 1,15.00,30.00,SummerDesignDay
8,1945734159.857142
1676,0.0
2,1, 7,21, 0, 1,30.00,45.00,SummerDesignDay
8,1945734159.857142
1676,0.0
2,1, 7,21, 0, 1,45.00,60.00,SummerDesignDay
8,1945734159.857142
1676,0.0
2,1, 7,21, 0, 2, 0.00,15.00,SummerDesignDay
8,1945734159.857142
1676,0.0
2,1, 7,21, 0, 2,15.00,30.00,SummerDesignDay
8,1945734159.857142
1676,0.0
2,1, 7,21, 0, 2,30.00,45.00,SummerDesignDay
8,1945734159.857142
1676,0.0
2,1, 7,21, 0, 2,45.00,60.00,SummerDesignDay
8,1945734159.857142
1676,0.0
2,1, 7,21, 0, 3, 0.00,15.00,SummerDesignDay
8,1945734159.857142
1676,0.0
2,1, 7,21, 0, 3,15.00,30.00,SummerDesignDay
8,1945734159.857142
1676,0.0
2,1, 7,21, 0, 3,30.00,45.00,SummerDesignDay
8,1945734159.857142
1676,0.0
2,1, 7,21, 0, 3,45.00,60.00,SummerDesignDay
8,1945734159.857142
1676,0.0
2,1, 7,21, 0, 4, 0.00,15.00,SummerDesignDay
8,1945734159.857142
1676,0.0
2,1, 7,21, 0, 4,15.00,30.00,SummerDesignDay
8,1945734159.857142
1676,0.0
2,1, 7,21, 0, 4,30.00,45.00,SummerDesignDay
8,1945734159.857142
1676,0.0
2,1, 7,21, 0, 4,45.00,60.00,SummerDesignDay
8,1945734159.857142
1676,0.0
2,1, 7,21, 0, 5, 0.00,15.00,SummerDesignDay
8,1945734159.857142
1676,0.0
2,1, 7,21, 0, 5,15.00,30.00,SummerDesignDay
8,1945734159.857142
1676,0.0
2,1, 7,21, 0, 5,30.00,45.00,SummerDesignDay
8,1945734159.857142
1676,0.0
2,1, 7,21, 0, 5,45.00,60.00,SummerDesignDay
8,1945734159.857142
1676,0.0
2,1, 7,21, 0, 6, 0.00,15.00,SummerDesignDay
8,1945734159.857142
1676,0.0
2,1, 7,21, 0, 6,15.00,30.00,SummerDesignDay
8,1945734159.857142
1676,0.0
2,1, 7,21, 0, 6,30.00,45.00,SummerDesignDay
8,1945734159.857142
1676,0.0
2,1, 7,21, 0, 6,45.00,60.00,SummerDesignDay
8,1945734159.857142
1676,0.0
2,1, 7,21, 0, 7, 0.00,15.00,SummerDesignDay
8,1945849121.1117209
1676,26760514.894302966
2,1, 7,21, 0, 7,15.00,30.00,SummerDesignDay
8,1945849121.1117209
1676,0.0
2,1, 7,21, 0, 7,30.00,45.00,SummerDesignDay
8,1945849121.1117209
1676,24964746.38533984
2,1, 7,21, 0, 7,45.00,60.00,SummerDesignDay
8,1945849121.1117209
1676,24964616.69856887
2,1, 7,21, 0, 8, 0.00,15.00,SummerDesignDay
8,1945849121.1117209
1676,27286128.386176506
2,1, 7,21, 0, 8,15.00,30.00,SummerDesignDay
8,1945849121.1117209
1676,27258041.718357266
2,1, 7,21, 0, 8,30.00,45.00,SummerDesignDay
8,1945849121.1117209
1676,27245285.58657834
2,1, 7,21, 0, 8,45.00,60.00,SummerDesignDay
8,1945849121.1117209
1676,27212871.226679375
2,1, 7,21, 0, 9, 0.00,15.00,SummerDesignDay
8,1945849121.1117209
1676,62248575.636716548
2,1, 7,21, 0, 9,15.00,30.00,SummerDesignDay
8,1945849121.1117209
1676,36842001.181348528
2,1, 7,21, 0, 9,30.00,45.00,SummerDesignDay
8,1945849121.1117209
1676,56871361.4525495
2,1, 7,21, 0, 9,45.00,60.00,SummerDesignDay
8,1945849121.1117209
1676,62456020.14168714
2,1, 7,21, 0,10, 0.00,15.00,SummerDesignDay
8,1945849121.1117209
1676,47914123.765324328
2,1, 7,21, 0,10,15.00,30.00,SummerDesignDay
8,1945849121.1117209
1676,48455846.53983704
2,1, 7,21, 0,10,30.00,45.00,SummerDesignDay
8,1945849121.1117209
1676,64203494.986740399
2,1, 7,21, 0,10,45.00,60.00,SummerDesignDay
8,1945849121.1117209
1676,64274049.73302903
2,1, 7,21, 0,11, 0.00,15.00,SummerDesignDay
8,1945849121.1117209
1676,49822652.01207022
2,1, 7,21, 0,11,15.00,30.00,SummerDesignDay
8,1945849121.1117209
1676,47503171.85502715
2,1, 7,21, 0,11,30.00,45.00,SummerDesignDay
8,1945849121.1117209
1676,64859618.71175195
2,1, 7,21, 0,11,45.00,60.00,SummerDesignDay
8,1945849121.1117209
1676,64884668.99509525
2,1, 7,21, 0,12, 0.00,15.00,SummerDesignDay
8,1945849121.1117209
1676,70226222.3089835
2,1, 7,21, 0,12,15.00,30.00,SummerDesignDay
8,1945849121.1117209
1676,70473132.91090468
2,1, 7,21, 0,12,30.00,45.00,SummerDesignDay
8,1945849121.1117209
1676,65936318.5919957
2,1, 7,21, 0,12,45.00,60.00,SummerDesignDay
8,1945849121.1117209
1676,64073990.35983004
2,1, 7,21, 0,13, 0.00,15.00,SummerDesignDay
8,1945849121.1117209
1676,83398022.55069855
2,1, 7,21, 0,13,15.00,30.00,SummerDesignDay
8,1945849121.1117209
1676,85178881.76645693
2,1, 7,21, 0,13,30.00,45.00,SummerDesignDay
8,1945849121.1117209
1676,80392020.8222741
2,1, 7,21, 0,13,45.00,60.00,SummerDesignDay
8,1945849121.1117209
1676,78955274.32146786
2,1, 7,21, 0,14, 0.00,15.00,SummerDesignDay
8,1945849121.1117209
1676,76356020.14515794
2,1, 7,21, 0,14,15.00,30.00,SummerDesignDay
8,1945849121.1117209
1676,76242633.1072655
2,1, 7,21, 0,14,30.00,45.00,SummerDesignDay
8,1945849121.1117209
1676,76221906.43874106
2,1, 7,21, 0,14,45.00,60.00,SummerDesignDay
8,1945849121.1117209
1676,76229604.29730304
2,1, 7,21, 0,15, 0.00,15.00,SummerDesignDay
8,1945849121.1117209
1676,62185889.98266163
2,1, 7,21, 0,15,15.00,30.00,SummerDesignDay
8,1945849121.1117209
1676,30929865.79125718
2,1, 7,21, 0,15,30.00,45.00,SummerDesignDay
8,1945849121.1117209
1676,61895961.047954488
2,1, 7,21, 0,15,45.00,60.00,SummerDesignDay
8,1945849121.1117209
1676,54280262.747054088
2,1, 7,21, 0,16, 0.00,15.00,SummerDesignDay
8,1945849121.1117209
1676,38194417.40954118
2,1, 7,21, 0,16,15.00,30.00,SummerDesignDay
8,1945849121.1117209
1676,61255732.84504387
2,1, 7,21, 0,16,30.00,45.00,SummerDesignDay
8,1945849121.1117209
1676,35198476.4248787
2,1, 7,21, 0,16,45.00,60.00,SummerDesignDay
8,1945849121.1117209
1676,56624327.4978015
2,1, 7,21, 0,17, 0.00,15.00,SummerDesignDay
8,1945849121.1117209
1676,67691558.83037094
2,1, 7,21, 0,17,15.00,30.00,SummerDesignDay
8,1945849121.1117209
1676,68311268.07310909
2,1, 7,21, 0,17,30.00,45.00,SummerDesignDay
8,1945849121.1117209
1676,66554306.994133759
2,1, 7,21, 0,17,45.00,60.00,SummerDesignDay
8,1945849121.1117209
1676,56185468.33858287
2,1, 7,21, 0,18, 0.00,15.00,SummerDesignDay
8,1945849121.1117209
1676,40731428.418322738
2,1, 7,21, 0,18,15.00,30.00,SummerDesignDay
8,1945849121.1117209
1676,28799382.0364285
2,1, 7,21, 0,18,30.00,45.00,SummerDesignDay
8,1945849121.1117209
1676,57435140.05336757
2,1, 7,21, 0,18,45.00,60.00,SummerDesignDay
8,1945849121.1117209
1676,28707748.54980149
2,1, 7,21, 0,19, 0.00,15.00,SummerDesignDay
8,1945849121.1117209
1676,27631110.557153435
2,1, 7,21, 0,19,15.00,30.00,SummerDesignDay
8,1945849121.1117209
1676,50508209.64418851
2,1, 7,21, 0,19,30.00,45.00,SummerDesignDay
8,1945849121.1117209
1676,32579983.080688999
2,1, 7,21, 0,19,45.00,60.00,SummerDesignDay
8,1945849121.1117209
1676,27741606.700769366
2,1, 7,21, 0,20, 0.00,15.00,SummerDesignDay
8,1945849121.1117209
1676,26466371.418596716
2,1, 7,21, 0,20,15.00,30.00,SummerDesignDay
8,1945849121.1117209
1676,26473653.196320688
2,1, 7,21, 0,20,30.00,45.00,SummerDesignDay
8,1945849121.1117209
1676,26376895.43539391
2,1, 7,21, 0,20,45.00,60.00,SummerDesignDay
8,1945849121.1117209
1676,26413008.73307386
2,1, 7,21, 0,21, 0.00,15.00,SummerDesignDay
8,1945849121.1117209
1676,26693382.63219945
2,1, 7,21, 0,21,15.00,30.00,SummerDesignDay
8,1945849121.1117209
1676,26752997.658386154
2,1, 7,21, 0,21,30.00,45.00,SummerDesignDay
8,1945849121.1117209
1676,26757875.949536239
2,1, 7,21, 0,21,45.00,60.00,SummerDesignDay
8,1945849121.1117209
1676,26607705.272108146
2,1, 7,21, 0,22, 0.00,15.00,SummerDesignDay
8,1945849121.1117209
1676,24907384.61930613
2,1, 7,21, 0,22,15.00,30.00,SummerDesignDay
8,1945849121.1117209
1676,0.0
2,1, 7,21, 0,22,30.00,45.00,SummerDesignDay
8,1945849121.1117209
1676,24970690.789076605
2,1, 7,21, 0,22,45.00,60.00,SummerDesignDay
8,1945849121.1117209
1676,25021177.935855267
2,1, 7,21, 0,23, 0.00,15.00,SummerDesignDay
8,1945849121.1117209
1676,0.0
2,1, 7,21, 0,23,15.00,30.00,SummerDesignDay
8,1945849121.1117209
1676,24555275.0816443
2,1, 7,21, 0,23,30.00,45.00,SummerDesignDay
8,1945849121.1117209
1676,0.0
2,1, 7,21, 0,23,45.00,60.00,SummerDesignDay
8,1945849121.1117209
1676,19280742.987354775
2,1, 7,21, 0,24, 0.00,15.00,SummerDesignDay
8,1945849121.1117209
1676,5208265.688031541
2,1, 7,21, 0,24,15.00,30.00,SummerDesignDay
8,1945849121.1117209
1676,10522388.859215435
2,1, 7,21, 0,24,30.00,45.00,SummerDesignDay
8,1945849121.1117209
1676,13820429.758161247
2,1, 7,21, 0,24,45.00,60.00,SummerDesignDay
8,1945849121.1117209
1676,2717074.9726193954
1,TUCSON INTERNATIONAL AP ANN HTG 99.6% CONDNS DB 1 HVAC Sizing Pass 1,  32.13,-110.95,  -7.00, 777.00
2,1,12,21, 0, 1, 0.00,15.00,WinterDesignDay
8,460734159.85714289
1676,0.0
2,1,12,21, 0, 1,15.00,30.00,WinterDesignDay
8,460734159.85714289
1676,0.0
2,1,12,21, 0, 1,30.00,45.00,WinterDesignDay
8,460734159.85714289
1676,0.0
2,1,12,21, 0, 1,45.00,60.00,WinterDesignDay
8,460734159.85714289
1676,0.0
2,1,12,21, 0, 2, 0.00,15.00,WinterDesignDay
8,460734159.85714289
1676,0.0
2,1,12,21, 0, 2,15.00,30.00,WinterDesignDay
8,460734159.85714289
1676,0.0
2,1,12,21, 0, 2,30.00,45.00,WinterDesignDay
8,460734159.85714289
1676,0.0
2,1,12,21, 0, 2,45.00,60.00,WinterDesignDay
8,460734159.85714289
1676,0.0
2,1,12,21, 0, 3, 0.00,15.00,WinterDesignDay
8,460734159.85714289
1676,0.0
2,1,12,21, 0, 3,15.00,30.00,WinterDesignDay
8,460734159.85714289
1676,0.0
2,1,12,21, 0, 3,30.00,45.00,WinterDesignDay
8,460734159.85714289
1676,0.0
2,1,12,21, 0, 3,45.00,60.00,WinterDesignDay
8,460734159.85714289
1676,0.0
2,1,12,21, 0, 4, 0.00,15.00,WinterDesignDay
8,460734159.85714289
1676,0.0
2,1,12,21, 0, 4,15.00,30.00,WinterDesignDay
8,460734159.85714289
1676,0.0
2,1,12,21, 0, 4,30.00,45.00,WinterDesignDay
8,460734159.85714289
1676,0.0
2,1,12,21, 0, 4,45.00,60.00,WinterDesignDay
8,460734159.85714289
1676,0.0
2,1,12,21, 0, 5, 0.00,15.00,WinterDesignDay
8,460734159.85714289
1676,0.0
2,1,12,21, 0, 5,15.00,30.00,WinterDesignDay
8,460734159.85714289
1676,0.0
2,1,12,21, 0, 5,30.00,45.00,WinterDesignDay
8,460734159.85714289
1676,0.0
2,1,12,21, 0, 5,45.00,60.00,WinterDesignDay
8,460734159.85714289
1676,0.0
2,1,12,21, 0, 6, 0.00,15.00,WinterDesignDay
8,460734159.85714289
1676,0.0
2,1,12,21, 0, 6,15.00,30.00,WinterDesignDay
8,460734159.85714289
1676,0.0
2,1,12,21, 0, 6,30.00,45.00,WinterDesignDay
8,460734159.85714289
1676,0.0
2,1,12,21, 0, 6,45.00,60.00,WinterDesignDay
8,460734159.85714289
1676,0.0
2,1,12,21, 0, 7, 0.00,15.00,WinterDesignDay
8,460849121.11172166
1676,27204457.622066846
2,1,12,21, 0, 7,15.00,30.00,WinterDesignDay
8,460849121.11172166
1676,25485699.850622439
2,1,12,21, 0, 7,30.00,45.00,WinterDesignDay
8,460849121.11172166
1676,8395200.840430256
2,1,12,21, 0, 7,45.00,60.00,WinterDesignDay
8,460849121.11172166
1676,16800252.950120029
2,1,12,21, 0, 8, 0.00,15.00,WinterDesignDay
8,460849121.11172166
1676,26261963.573699804
2,1,12,21, 0, 8,15.00,30.00,WinterDesignDay
8,460849121.11172166
1676,26371406.41808503
2,1,12,21, 0, 8,30.00,45.00,WinterDesignDay
8,460849121.11172166
1676,26374978.250706655
2,1,12,21, 0, 8,45.00,60.00,WinterDesignDay
8,460849121.11172166
1676,26375176.402266649
2,1,12,21, 0, 9, 0.00,15.00,WinterDesignDay
8,460849121.11172166
1676,27611446.592332189
2,1,12,21, 0, 9,15.00,30.00,WinterDesignDay
8,460849121.11172166
1676,55334655.80059003
2,1,12,21, 0, 9,30.00,45.00,WinterDesignDay
8,460849121.11172166
1676,27557818.265615405
2,1,12,21, 0, 9,45.00,60.00,WinterDesignDay
8,460849121.11172166
1676,27597914.95346513
2,1,12,21, 0,10, 0.00,15.00,WinterDesignDay
8,460849121.11172166
1676,50919281.83220893
2,1,12,21, 0,10,15.00,30.00,WinterDesignDay
8,460849121.11172166
1676,38202521.33681401
2,1,12,21, 0,10,30.00,45.00,WinterDesignDay
8,460849121.11172166
1676,56431115.954803388
2,1,12,21, 0,10,45.00,60.00,WinterDesignDay
8,460849121.11172166
1676,32943175.06277812
2,1,12,21, 0,11, 0.00,15.00,WinterDesignDay
8,460849121.11172166
1676,50762313.696446169
2,1,12,21, 0,11,15.00,30.00,WinterDesignDay
8,460849121.11172166
1676,36427976.8900532
2,1,12,21, 0,11,30.00,45.00,WinterDesignDay
8,460849121.11172166
1676,31616582.905875237
2,1,12,21, 0,11,45.00,60.00,WinterDesignDay
8,460849121.11172166
1676,55442438.49486675
2,1,12,21, 0,12, 0.00,15.00,WinterDesignDay
8,460849121.11172166
1676,39461180.01077882
2,1,12,21, 0,12,15.00,30.00,WinterDesignDay
8,460849121.11172166
1676,52066895.103718008
2,1,12,21, 0,12,30.00,45.00,WinterDesignDay
8,460849121.11172166
1676,61214969.29662079
2,1,12,21, 0,12,45.00,60.00,WinterDesignDay
8,460849121.11172166
1676,30549835.123717447
2,1,12,21, 0,13, 0.00,15.00,WinterDesignDay
8,460849121.11172166
1676,58931475.96714151
2,1,12,21, 0,13,15.00,30.00,WinterDesignDay
8,460849121.11172166
1676,29388527.416407
2,1,12,21, 0,13,30.00,45.00,WinterDesignDay
8,460849121.11172166
1676,58829918.805196117
2,1,12,21, 0,13,45.00,60.00,WinterDesignDay
8,460849121.11172166
1676,29370157.656739505
2,1,12,21, 0,14, 0.00,15.00,WinterDesignDay
8,460849121.11172166
1676,58204245.90444908
2,1,12,21, 0,14,15.00,30.00,WinterDesignDay
8,460849121.11172166
1676,28957884.971629599
2,1,12,21, 0,14,30.00,45.00,WinterDesignDay
8,460849121.11172166
1676,41762336.23782723
2,1,12,21, 0,14,45.00,60.00,WinterDesignDay
8,460849121.11172166
1676,45319969.37561919
2,1,12,21, 0,15, 0.00,15.00,WinterDesignDay
8,460849121.11172166
1676,27708491.21202038
2,1,12,21, 0,15,15.00,30.00,WinterDesignDay
8,460849121.11172166
1676,27701095.02204302
2,1,12,21, 0,15,30.00,45.00,WinterDesignDay
8,460849121.11172166
1676,55332927.66100903
2,1,12,21, 0,15,45.00,60.00,WinterDesignDay
8,460849121.11172166
1676,27557962.203280715
2,1,12,21, 0,16, 0.00,15.00,WinterDesignDay
8,460849121.11172166
1676,26993986.45258395
2,1,12,21, 0,16,15.00,30.00,WinterDesignDay
8,460849121.11172166
1676,26979991.966423114
2,1,12,21, 0,16,30.00,45.00,WinterDesignDay
8,460849121.11172166
1676,27001856.74015844
2,1,12,21, 0,16,45.00,60.00,WinterDesignDay
8,460849121.11172166
1676,27023335.573125446
2,1,12,21, 0,17, 0.00,15.00,WinterDesignDay
8,460849121.11172166
1676,31686671.497108628
2,1,12,21, 0,17,15.00,30.00,WinterDesignDay
8,460849121.11172166
1676,50293383.315771687
2,1,12,21, 0,17,30.00,45.00,WinterDesignDay
8,460849121.11172166
1676,27237124.862669548
2,1,12,21, 0,17,45.00,60.00,WinterDesignDay
8,460849121.11172166
1676,27263367.250969959
2,1,12,21, 0,18, 0.00,15.00,WinterDesignDay
8,460849121.11172166
1676,25404453.542119974
2,1,12,21, 0,18,15.00,30.00,WinterDesignDay
8,460849121.11172166
1676,0.0
2,1,12,21, 0,18,30.00,45.00,WinterDesignDay
8,460849121.11172166
1676,25127058.40468124
2,1,12,21, 0,18,45.00,60.00,WinterDesignDay
8,460849121.11172166
1676,25187086.166497109
2,1,12,21, 0,19, 0.00,15.00,WinterDesignDay
8,460849121.11172166
1676,25302230.43081566
2,1,12,21, 0,19,15.00,30.00,WinterDesignDay
8,460849121.11172166
1676,0.0
2,1,12,21, 0,19,30.00,45.00,WinterDesignDay
8,460849121.11172166
1676,25137312.506588587
2,1,12,21, 0,19,45.00,60.00,WinterDesignDay
8,460849121.11172166
1676,25211950.16502071
2,1,12,21, 0,20, 0.00,15.00,WinterDesignDay
8,460734159.85714289
1676,0.0
2,1,12,21, 0,20,15.00,30.00,WinterDesignDay
8,460734159.85714289
1676,0.0
2,1,12,21, 0,20,30.00,45.00,WinterDesignDay
8,460734159.85714289
1676,0.0
2,1,12,21, 0,20,45.00,60.00,WinterDesignDay
8,460734159.85714289
1676,0.0
2,1,12,21, 0,21, 0.00,15.00,WinterDesignDay
8,460734159.85714289
1676,0.0
2,1,12,21, 0,21,15.00,30.00,WinterDesignDay
8,460734159.85714289
1676,0.0
2,1,12,21, 0,21,30.00,45.00,WinterDesignDay
8,460734159.85714289
1676,0.0
2,1,12,21, 0,21,45.00,60.00,WinterDesignDay
8,460734159.85714289
1676,0.0
2,1,12,21, 0,22, 0.00,15.00,WinterDesignDay
8,460734159.85714289
1676,0.0
2,1,12,21, 0,22,15.00,30.00,WinterDesignDay
8,460734159.85714289
1676,0.0
2,1,12,21, 0,22,30.00,45.00,WinterDesignDay
8,460734159.85714289
1676,0.0
2,1,12,21, 0,22,45.00,60.00,WinterDesignDay
8,460734159.85714289
1676,0.0
2,1,12,21, 0,23, 0.00,15.00,WinterDesignDay
8,460734159.85714289
1676,0.0
2,1,12,21, 0,23,15.00,30.00,WinterDesignDay
8,460734159.85714289
1676,0.0
2,1,12,21, 0,23,30.00,45.00,WinterDesignDay
8,460734159.85714289
1676,0.0
2,1,12,21, 0,23,45.00,60.00,WinterDesignDay
8,460734159.85714289
1676,0.0
2,1,12,21, 0,24, 0.00,15.00,WinterDesignDay
8,460734159.85714289
1676,0.0
2,1,12,21, 0,24,15.00,30.00,WinterDesignDay
8,460734159.85714289
1676,0.0
2,1,12,21, 0,24,30.00,45.00,WinterDesignDay
8,460734159.85714289
1676,0.0
2,1,12,21, 0,24,45.00,60.00,WinterDesignDay
8,460734159.85714289
1676,0.0
1,TUCSON INTERNATIONAL AP ANN CLG .4% CONDNS DB=>MWB 1,  32.13,-110.95,  -7.00, 777.00
2,1, 7,21, 0, 1, 0.00,15.00,SummerDesignDay
8,1945734159.857142
1676,0.0
2,1, 7,21, 0, 1,15.00,30.00,SummerDesignDay
8,1945734159.857142
1676,0.0
2,1, 7,21, 0, 1,30.00,45.00,SummerDesignDay
8,1945734159.857142
1676,0.0
2,1, 7,21, 0, 1,45.00,60.00,SummerDesignDay
8,1945734159.857142
1676,0.0
2,1, 7,21, 0, 2, 0.00,15.00,SummerDesignDay
8,1945734159.857142
1676,0.0
2,1, 7,21, 0, 2,15.00,30.00,SummerDesignDay
8,1945734159.857142
1676,0.0
2,1, 7,21, 0, 2,30.00,45.00,SummerDesignDay
8,1945734159.857142
1676,0.0
2,1, 7,21, 0, 2,45.00,60.00,SummerDesignDay
8,1945734159.857142
1676,0.0
2,1, 7,21, 0, 3, 0.00,15.00,SummerDesignDay
8,1945734159.857142
1676,0.0
2,1, 7,21, 0, 3,15.00,30.00,SummerDesignDay
8,1945734159.857142
1676,0.0
2,1, 7,21, 0, 3,30.00,45.00,SummerDesignDay
8,1945734159.857142
1676,0.0
2,1, 7,21, 0, 3,45.00,60.00,SummerDesignDay
8,1945734159.857142
1676,0.0
2,1, 7,21, 0, 4, 0.00,15.00,SummerDesignDay
8,1945734159.857142
1676,0.0
2,1, 7,21, 0, 4,15.00,30.00,SummerDesignDay
8,1945734159.857142
1676,0.0
2,1, 7,21, 0, 4,30.00,45.00,SummerDesignDay
8,1945734159.857142
1676,0.0
2,1, 7,21, 0, 4,45.00,60.00,SummerDesignDay
8,1945734159.857142
1676,0.0
2,1, 7,21, 0, 5, 0.00,15.00,SummerDesignDay
8,1945734159.857142
1676,0.0
2,1, 7,21, 0, 5,15.00,30.00,SummerDesignDay
8,1945734159.857142
1676,0.0
2,1, 7,21, 0, 5,30.00,45.00,SummerDesignDay
8,1945734159.857142
1676,0.0
2,1, 7,21, 0, 5,45.00,60.00,SummerDesignDay
8,1945734159.857142
1676,0.0
2,1, 7,21, 0, 6, 0.00,15.00,SummerDesignDay
8,1945734159.857142
1676,0.0
2,1, 7,21, 0, 6,15.00,30.00,SummerDesignDay
8,1945734159.857142
1676,0.0
2,1, 7,21, 0, 6,30.00,45.00,SummerDesignDay
8,1945734159.857142
1676,0.0
2,1, 7,21, 0, 6,45.00,60.00,SummerDesignDay
8,1945734159.857142
1676,0.0
2,1, 7,21, 0, 7, 0.00,15.00,SummerDesignDay
8,1945849121.1117209
1676,26760514.894270056
2,1, 7,21, 0, 7,15.00,30.00,SummerDesignDay
8,1945849121.1117209
1676,0.0
2,1, 7,21, 0, 7,30.00,45.00,SummerDesignDay
8,1945849121.1117209
1676,24964746.385341329
2,1, 7,21, 0, 7,45.00,60.00,SummerDesignDay
8,1945849121.1117209
1676,24964616.69852882
2,1, 7,21, 0, 8, 0.00,15.00,SummerDesignDay
8,1945849121.1117209
1676,27286128.386172259
2,1, 7,21, 0, 8,15.00,30.00,SummerDesignDay
8,1945849121.1117209
1676,27258041.718338696
2,1, 7,21, 0, 8,30.00,45.00,SummerDesignDay
8,1945849121.1117209
1676,27245285.586550647
2,1, 7,21, 0, 8,45.00,60.00,SummerDesignDay
8,1945849121.1117209
1676,27212871.226710388
2,1, 7,21, 0, 9, 0.00,15.00,SummerDesignDay
8,1945849121.1117209
1676,62248575.63679477
2,1, 7,21, 0, 9,15.00,30.00,SummerDesignDay
8,1945849121.1117209
1676,36842001.179518427
2,1, 7,21, 0, 9,30.00,45.00,SummerDesignDay
8,1945849121.1117209
1676,56871361.45438571
2,1, 7,21, 0, 9,45.00,60.00,SummerDesignDay
8,1945849121.1117209
1676,62456020.14168776
2,1, 7,21, 0,10, 0.00,15.00,SummerDesignDay
8,1945849121.1117209
1676,47914123.76410595
2,1, 7,21, 0,10,15.00,30.00,SummerDesignDay
8,1945849121.1117209
1676,48455846.54112559
2,1, 7,21, 0,10,30.00,45.00,SummerDesignDay
8,1945849121.1117209
1676,64203494.986778337
2,1, 7,21, 0,10,45.00,60.00,SummerDesignDay
8,1945849121.1117209
1676,64274049.73306471
2,1, 7,21, 0,11, 0.00,15.00,SummerDesignDay
8,1945849121.1117209
1676,49822652.011117998
2,1, 7,21, 0,11,15.00,30.00,SummerDesignDay
8,1945849121.1117209
1676,47503171.85593608
2,1, 7,21, 0,11,30.00,45.00,SummerDesignDay
8,1945849121.1117209
1676,64859618.71168625
2,1, 7,21, 0,11,45.00,60.00,SummerDesignDay
8,1945849121.1117209
1676,64884668.99515462
2,1, 7,21, 0,12, 0.00,15.00,SummerDesignDay
8,1945849121.1117209
1676,70226222.30899641
2,1, 7,21, 0,12,15.00,30.00,SummerDesignDay
8,1945849121.1117209
1676,70473132.91096741
2,1, 7,21, 0,12,30.00,45.00,SummerDesignDay
8,1945849121.1117209
1676,65936318.59130855
2,1, 7,21, 0,12,45.00,60.00,SummerDesignDay
8,1945849121.1117209
1676,64073990.35961571
2,1, 7,21, 0,13, 0.00,15.00,SummerDesignDay
8,1945849121.1117209
1676,83398022.55083023
2,1, 7,21, 0,13,15.00,30.00,SummerDesignDay
8,1945849121.1117209
1676,85178881.76664469
2,1, 7,21, 0,13,30.00,45.00,SummerDesignDay
8,1945849121.1117209
1676,80392020.82287507
2,1, 7,21, 0,13,45.00,60.00,SummerDesignDay
8,1945849121.1117209
1676,78955274.32150334
2,1, 7,21, 0,14, 0.00,15.00,SummerDesignDay
8,1945849121.1117209
1676,76356020.14511207
2,1, 7,21, 0,14,15.00,30.00,SummerDesignDay
8,1945849121.1117209
1676,76242633.10714796
2,1, 7,21, 0,14,30.00,45.00,SummerDesignDay
8,1945849121.1117209
1676,76221906.43872388
2,1, 7,21, 0,14,45.00,60.00,SummerDesignDay
8,1945849121.1117209
1676,76229604.29728693
2,1, 7,21, 0,15, 0.00,15.00,SummerDesignDay
8,1945849121.1117209
1676,62185889.982645798
2,1, 7,21, 0,15,15.00,30.00,SummerDesignDay
8,1945849121.1117209
1676,30929865.79125353
2,1, 7,21, 0,15,30.00,45.00,SummerDesignDay
8,1945849121.1117209
1676,61895961.047954637
2,1, 7,21, 0,15,45.00,60.00,SummerDesignDay
8,1945849121.1117209
1676,54280262.74595542